Sconfig 0.00000 tap: on snoop: rts? on errs? on
Sconfig 0.00000 salvage: on !bd replies? on
Sconfig 0.00000 grat error: on grat reply: on
Sconfig 0.00000 $reply for props: on ring 0 search: on
Sconfig 0.00000 using MOBICACHE
M 0.20000 17 (54.00, -84.00, 0.00), (720.00, 170.00), 80.00
M 0.20000 23 (589.00, -56.00, 0.00), (450.00, 144.00), 50.00
M 0.30000 8 (1187.00, 99.00, 0.00), (750.00, 55.00), 50.00
M 0.40000 16 (351.00, -184.00, 0.00), (742.00, 280.00), 50.00
M 0.50000 15 (1019.00, -17.00, 0.00), (739.00, 46.00), 80.00
s 1.000000000 _0_ AGT  --- 0 cbr 1000 [0 0 0 0] ------- [0:0 20:0 32 0] [0] 0 0
r 1.000000000 _0_ RTR  --- 0 cbr 1000 [0 0 0 0] ------- [0:0 20:0 32 0] [0] 0 0
s 1.005895852 _0_ RTR  --- 1 DSR 32 [0 0 0 0] ------- [0:255 20:255 32 0] 1 [1 1] [0 1 0 0->0] [0 0 0 0->0]
s 1.006250852 _0_ MAC  --- 1 DSR 90 [0 ffffffff 0 800] ------- [0:255 20:255 32 0] 1 [1 1] [0 1 0 0->0] [0 0 0 0->0]
r 1.006971470 _22_ MAC  --- 1 DSR 32 [0 ffffffff 0 800] ------- [0:255 20:255 32 0] 1 [1 1] [0 1 0 0->0] [0 0 0 0->0]
r 1.006971545 _11_ MAC  --- 1 DSR 32 [0 ffffffff 0 800] ------- [0:255 20:255 32 0] 1 [1 1] [0 1 0 0->0] [0 0 0 0->0]
r 1.006971611 _12_ MAC  --- 1 DSR 32 [0 ffffffff 0 800] ------- [0:255 20:255 32 0] 1 [1 1] [0 1 0 0->0] [0 0 0 0->0]
r 1.006996470 _22_ RTR  --- 1 DSR 32 [0 ffffffff 0 800] ------- [0:255 20:255 32 0] 1 [1 1] [0 1 0 0->0] [0 0 0 0->0]
r 1.006996545 _11_ RTR  --- 1 DSR 32 [0 ffffffff 0 800] ------- [0:255 20:255 32 0] 1 [1 1] [0 1 0 0->0] [0 0 0 0->0]
r 1.006996611 _12_ RTR  --- 1 DSR 32 [0 ffffffff 0 800] ------- [0:255 20:255 32 0] 1 [1 1] [0 1 0 0->0] [0 0 0 0->0]
s 1.008000000 _0_ AGT  --- 2 cbr 1000 [0 0 0 0] ------- [0:0 20:0 32 0] [1] 0 0
r 1.008000000 _0_ RTR  --- 2 cbr 1000 [0 0 0 0] ------- [0:0 20:0 32 0] [1] 0 0
s 1.016000000 _0_ AGT  --- 6 cbr 1000 [0 0 0 0] ------- [0:0 20:0 32 0] [2] 0 0
r 1.016000000 _0_ RTR  --- 6 cbr 1000 [0 0 0 0] ------- [0:0 20:0 32 0] [2] 0 0
s 1.024000000 _0_ AGT  --- 8 cbr 1000 [0 0 0 0] ------- [0:0 20:0 32 0] [3] 0 0
r 1.024000000 _0_ RTR  --- 8 cbr 1000 [0 0 0 0] ------- [0:0 20:0 32 0] [3] 0 0
s 1.032000000 _0_ AGT  --- 10 cbr 1000 [0 0 0 0] ------- [0:0 20:0 32 0] [4] 0 0
r 1.032000000 _0_ RTR  --- 10 cbr 1000 [0 0 0 0] ------- [0:0 20:0 32 0] [4] 0 0
s 1.037060886 _0_ RTR  --- 11 DSR 32 [0 0 0 0] ------- [0:255 20:255 32 0] 1 [1 2] [0 2 0 0->0] [0 0 0 0->0]
s 1.037575886 _0_ MAC  --- 11 DSR 90 [0 ffffffff 0 800] ------- [0:255 20:255 32 0] 1 [1 2] [0 2 0 0->0] [0 0 0 0->0]
r 1.038296504 _22_ MAC  --- 11 DSR 32 [0 ffffffff 0 800] ------- [0:255 20:255 32 0] 1 [1 2] [0 2 0 0->0] [0 0 0 0->0]
r 1.038296579 _11_ MAC  --- 11 DSR 32 [0 ffffffff 0 800] ------- [0:255 20:255 32 0] 1 [1 2] [0 2 0 0->0] [0 0 0 0->0]
r 1.038296644 _12_ MAC  --- 11 DSR 32 [0 ffffffff 0 800] ------- [0:255 20:255 32 0] 1 [1 2] [0 2 0 0->0] [0 0 0 0->0]
r 1.038321504 _22_ RTR  --- 11 DSR 32 [0 ffffffff 0 800] ------- [0:255 20:255 32 0] 1 [1 2] [0 2 0 0->0] [0 0 0 0->0]
r 1.038321579 _11_ RTR  --- 11 DSR 32 [0 ffffffff 0 800] ------- [0:255 20:255 32 0] 1 [1 2] [0 2 0 0->0] [0 0 0 0->0]
r 1.038321644 _12_ RTR  --- 11 DSR 32 [0 ffffffff 0 800] ------- [0:255 20:255 32 0] 1 [1 2] [0 2 0 0->0] [0 0 0 0->0]
f 1.038804099 _12_ RTR  --- 11 DSR 48 [0 ffffffff 0 800] ------- [0:255 20:255 32 0] 2 [1 2] [0 2 0 0->0] [0 0 0 0->0]
s 1.039019099 _12_ MAC  --- 11 DSR 106 [0 ffffffff c 800] ------- [0:255 20:255 32 0] 2 [1 2] [0 2 0 0->0] [0 0 0 0->0]
r 1.039867665 _18_ MAC  --- 11 DSR 48 [0 ffffffff c 800] ------- [0:255 20:255 32 0] 2 [1 2] [0 2 0 0->0] [0 0 0 0->0]
r 1.039867693 _1_ MAC  --- 11 DSR 48 [0 ffffffff c 800] ------- [0:255 20:255 32 0] 2 [1 2] [0 2 0 0->0] [0 0 0 0->0]
r 1.039867857 _0_ MAC  --- 11 DSR 48 [0 ffffffff c 800] ------- [0:255 20:255 32 0] 2 [1 2] [0 2 0 0->0] [0 0 0 0->0]
r 1.039892665 _18_ RTR  --- 11 DSR 48 [0 ffffffff c 800] ------- [0:255 20:255 32 0] 2 [1 2] [0 2 0 0->0] [0 0 0 0->0]
r 1.039892693 _1_ RTR  --- 11 DSR 48 [0 ffffffff c 800] ------- [0:255 20:255 32 0] 2 [1 2] [0 2 0 0->0] [0 0 0 0->0]
r 1.039892857 _0_ RTR  --- 11 DSR 48 [0 ffffffff c 800] ------- [0:255 20:255 32 0] 2 [1 2] [0 2 0 0->0] [0 0 0 0->0]
s 1.040000000 _0_ AGT  --- 12 cbr 1000 [0 0 0 0] ------- [0:0 20:0 32 0] [5] 0 0
r 1.040000000 _0_ RTR  --- 12 cbr 1000 [0 0 0 0] ------- [0:0 20:0 32 0] [5] 0 0
f 1.045687974 _22_ RTR  --- 11 DSR 48 [0 ffffffff 0 800] ------- [0:255 20:255 32 0] 2 [1 2] [0 2 0 0->0] [0 0 0 0->0]
s 1.046102974 _22_ MAC  --- 11 DSR 106 [0 ffffffff 16 800] ------- [0:255 20:255 32 0] 2 [1 2] [0 2 0 0->0] [0 0 0 0->0]
f 1.046292041 _18_ RTR  --- 11 DSR 68 [0 ffffffff c 800] ------- [0:255 20:255 32 0] 3 [1 2] [0 2 0 0->0] [0 0 0 0->0]
r 1.046951519 _6_ MAC  --- 11 DSR 48 [0 ffffffff 16 800] ------- [0:255 20:255 32 0] 2 [1 2] [0 2 0 0->0] [0 0 0 0->0]
r 1.046951592 _0_ MAC  --- 11 DSR 48 [0 ffffffff 16 800] ------- [0:255 20:255 32 0] 2 [1 2] [0 2 0 0->0] [0 0 0 0->0]
r 1.046951653 _11_ MAC  --- 11 DSR 48 [0 ffffffff 16 800] ------- [0:255 20:255 32 0] 2 [1 2] [0 2 0 0->0] [0 0 0 0->0]
r 1.046951726 _3_ MAC  --- 11 DSR 48 [0 ffffffff 16 800] ------- [0:255 20:255 32 0] 2 [1 2] [0 2 0 0->0] [0 0 0 0->0]
r 1.046951757 _21_ MAC  --- 11 DSR 48 [0 ffffffff 16 800] ------- [0:255 20:255 32 0] 2 [1 2] [0 2 0 0->0] [0 0 0 0->0]
r 1.046951797 _4_ MAC  --- 11 DSR 48 [0 ffffffff 16 800] ------- [0:255 20:255 32 0] 2 [1 2] [0 2 0 0->0] [0 0 0 0->0]
r 1.046976519 _6_ RTR  --- 11 DSR 48 [0 ffffffff 16 800] ------- [0:255 20:255 32 0] 2 [1 2] [0 2 0 0->0] [0 0 0 0->0]
r 1.046976592 _0_ RTR  --- 11 DSR 48 [0 ffffffff 16 800] ------- [0:255 20:255 32 0] 2 [1 2] [0 2 0 0->0] [0 0 0 0->0]
r 1.046976653 _11_ RTR  --- 11 DSR 48 [0 ffffffff 16 800] ------- [0:255 20:255 32 0] 2 [1 2] [0 2 0 0->0] [0 0 0 0->0]
r 1.046976726 _3_ RTR  --- 11 DSR 48 [0 ffffffff 16 800] ------- [0:255 20:255 32 0] 2 [1 2] [0 2 0 0->0] [0 0 0 0->0]
r 1.046976757 _21_ RTR  --- 11 DSR 48 [0 ffffffff 16 800] ------- [0:255 20:255 32 0] 2 [1 2] [0 2 0 0->0] [0 0 0 0->0]
r 1.046976797 _4_ RTR  --- 11 DSR 48 [0 ffffffff 16 800] ------- [0:255 20:255 32 0] 2 [1 2] [0 2 0 0->0] [0 0 0 0->0]
f 1.047204248 _1_ RTR  --- 11 DSR 68 [0 ffffffff c 800] ------- [0:255 20:255 32 0] 3 [1 2] [0 2 0 0->0] [0 0 0 0->0]
s 1.047646707 _1_ MAC  --- 11 DSR 126 [0 ffffffff 1 800] ------- [0:255 20:255 32 0] 3 [1 2] [0 2 0 0->0] [0 0 0 0->0]
s 1.048000000 _0_ AGT  --- 20 cbr 1000 [0 0 0 0] ------- [0:0 20:0 32 0] [6] 0 0
r 1.048000000 _0_ RTR  --- 20 cbr 1000 [0 0 0 0] ------- [0:0 20:0 32 0] [6] 0 0
f 1.048231464 _11_ RTR  --- 11 DSR 48 [0 ffffffff 0 800] ------- [0:255 20:255 32 0] 2 [1 2] [0 2 0 0->0] [0 0 0 0->0]
r 1.048654899 _18_ MAC  --- 11 DSR 68 [0 ffffffff 1 800] ------- [0:255 20:255 32 0] 3 [1 2] [0 2 0 0->0] [0 0 0 0->0]
r 1.048655301 _12_ MAC  --- 11 DSR 68 [0 ffffffff 1 800] ------- [0:255 20:255 32 0] 3 [1 2] [0 2 0 0->0] [0 0 0 0->0]
r 1.048655449 _2_ MAC  --- 11 DSR 68 [0 ffffffff 1 800] ------- [0:255 20:255 32 0] 3 [1 2] [0 2 0 0->0] [0 0 0 0->0]
r 1.048679899 _18_ RTR  --- 11 DSR 68 [0 ffffffff 1 800] ------- [0:255 20:255 32 0] 3 [1 2] [0 2 0 0->0] [0 0 0 0->0]
r 1.048680301 _12_ RTR  --- 11 DSR 68 [0 ffffffff 1 800] ------- [0:255 20:255 32 0] 3 [1 2] [0 2 0 0->0] [0 0 0 0->0]
r 1.048680449 _2_ RTR  --- 11 DSR 68 [0 ffffffff 1 800] ------- [0:255 20:255 32 0] 3 [1 2] [0 2 0 0->0] [0 0 0 0->0]
f 1.048807838 _21_ RTR  --- 11 DSR 68 [0 ffffffff 16 800] ------- [0:255 20:255 32 0] 3 [1 2] [0 2 0 0->0] [0 0 0 0->0]
s 1.048824899 _18_ MAC  --- 11 DSR 126 [0 ffffffff 12 800] ------- [0:255 20:255 32 0] 3 [1 2] [0 2 0 0->0] [0 0 0 0->0]
s 1.049482838 _21_ MAC  --- 11 DSR 126 [0 ffffffff 15 800] ------- [0:255 20:255 32 0] 3 [1 2] [0 2 0 0->0] [0 0 0 0->0]
r 1.049833092 _1_ MAC  --- 11 DSR 68 [0 ffffffff 12 800] ------- [0:255 20:255 32 0] 3 [1 2] [0 2 0 0->0] [0 0 0 0->0]
r 1.049833466 _12_ MAC  --- 11 DSR 68 [0 ffffffff 12 800] ------- [0:255 20:255 32 0] 3 [1 2] [0 2 0 0->0] [0 0 0 0->0]
r 1.049833571 _10_ MAC  --- 11 DSR 68 [0 ffffffff 12 800] ------- [0:255 20:255 32 0] 3 [1 2] [0 2 0 0->0] [0 0 0 0->0]
r 1.049833685 _2_ MAC  --- 11 DSR 68 [0 ffffffff 12 800] ------- [0:255 20:255 32 0] 3 [1 2] [0 2 0 0->0] [0 0 0 0->0]
r 1.049858092 _1_ RTR  --- 11 DSR 68 [0 ffffffff 12 800] ------- [0:255 20:255 32 0] 3 [1 2] [0 2 0 0->0] [0 0 0 0->0]
r 1.049858466 _12_ RTR  --- 11 DSR 68 [0 ffffffff 12 800] ------- [0:255 20:255 32 0] 3 [1 2] [0 2 0 0->0] [0 0 0 0->0]
r 1.049858571 _10_ RTR  --- 11 DSR 68 [0 ffffffff 12 800] ------- [0:255 20:255 32 0] 3 [1 2] [0 2 0 0->0] [0 0 0 0->0]
r 1.049858685 _2_ RTR  --- 11 DSR 68 [0 ffffffff 12 800] ------- [0:255 20:255 32 0] 3 [1 2] [0 2 0 0->0] [0 0 0 0->0]
r 1.050491032 _13_ MAC  --- 11 DSR 68 [0 ffffffff 15 800] ------- [0:255 20:255 32 0] 3 [1 2] [0 2 0 0->0] [0 0 0 0->0]
r 1.050491230 _3_ MAC  --- 11 DSR 68 [0 ffffffff 15 800] ------- [0:255 20:255 32 0] 3 [1 2] [0 2 0 0->0] [0 0 0 0->0]
r 1.050491336 _6_ MAC  --- 11 DSR 68 [0 ffffffff 15 800] ------- [0:255 20:255 32 0] 3 [1 2] [0 2 0 0->0] [0 0 0 0->0]
r 1.050491525 _15_ MAC  --- 11 DSR 68 [0 ffffffff 15 800] ------- [0:255 20:255 32 0] 3 [1 2] [0 2 0 0->0] [0 0 0 0->0]
r 1.050491552 _8_ MAC  --- 11 DSR 68 [0 ffffffff 15 800] ------- [0:255 20:255 32 0] 3 [1 2] [0 2 0 0->0] [0 0 0 0->0]
D 1.050491622 _22_ MAC  COL 11 DSR 126 [0 ffffffff 15 800] ------- [0:255 20:255 32 0] 3 [1 2] [0 2 0 0->0] [0 0 0 0->0]
r 1.050516032 _13_ RTR  --- 11 DSR 68 [0 ffffffff 15 800] ------- [0:255 20:255 32 0] 3 [1 2] [0 2 0 0->0] [0 0 0 0->0]
r 1.050516230 _3_ RTR  --- 11 DSR 68 [0 ffffffff 15 800] ------- [0:255 20:255 32 0] 3 [1 2] [0 2 0 0->0] [0 0 0 0->0]
r 1.050516336 _6_ RTR  --- 11 DSR 68 [0 ffffffff 15 800] ------- [0:255 20:255 32 0] 3 [1 2] [0 2 0 0->0] [0 0 0 0->0]
r 1.050516525 _15_ RTR  --- 11 DSR 68 [0 ffffffff 15 800] ------- [0:255 20:255 32 0] 3 [1 2] [0 2 0 0->0] [0 0 0 0->0]
r 1.050516552 _8_ RTR  --- 11 DSR 68 [0 ffffffff 15 800] ------- [0:255 20:255 32 0] 3 [1 2] [0 2 0 0->0] [0 0 0 0->0]
s 1.050966052 _11_ MAC  --- 11 DSR 106 [0 ffffffff b 800] ------- [0:255 20:255 32 0] 2 [1 2] [0 2 0 0->0] [0 0 0 0->0]
f 1.051256514 _6_ RTR  --- 11 DSR 68 [0 ffffffff 16 800] ------- [0:255 20:255 32 0] 3 [1 2] [0 2 0 0->0] [0 0 0 0->0]
r 1.051814630 _4_ MAC  --- 11 DSR 48 [0 ffffffff b 800] ------- [0:255 20:255 32 0] 2 [1 2] [0 2 0 0->0] [0 0 0 0->0]
r 1.051814638 _23_ MAC  --- 11 DSR 48 [0 ffffffff b 800] ------- [0:255 20:255 32 0] 2 [1 2] [0 2 0 0->0] [0 0 0 0->0]
r 1.051814677 _10_ MAC  --- 11 DSR 48 [0 ffffffff b 800] ------- [0:255 20:255 32 0] 2 [1 2] [0 2 0 0->0] [0 0 0 0->0]
r 1.051814731 _22_ MAC  --- 11 DSR 48 [0 ffffffff b 800] ------- [0:255 20:255 32 0] 2 [1 2] [0 2 0 0->0] [0 0 0 0->0]
r 1.051814745 _0_ MAC  --- 11 DSR 48 [0 ffffffff b 800] ------- [0:255 20:255 32 0] 2 [1 2] [0 2 0 0->0] [0 0 0 0->0]
r 1.051814796 _14_ MAC  --- 11 DSR 48 [0 ffffffff b 800] ------- [0:255 20:255 32 0] 2 [1 2] [0 2 0 0->0] [0 0 0 0->0]
r 1.051839630 _4_ RTR  --- 11 DSR 48 [0 ffffffff b 800] ------- [0:255 20:255 32 0] 2 [1 2] [0 2 0 0->0] [0 0 0 0->0]
r 1.051839638 _23_ RTR  --- 11 DSR 48 [0 ffffffff b 800] ------- [0:255 20:255 32 0] 2 [1 2] [0 2 0 0->0] [0 0 0 0->0]
r 1.051839677 _10_ RTR  --- 11 DSR 48 [0 ffffffff b 800] ------- [0:255 20:255 32 0] 2 [1 2] [0 2 0 0->0] [0 0 0 0->0]
r 1.051839731 _22_ RTR  --- 11 DSR 48 [0 ffffffff b 800] ------- [0:255 20:255 32 0] 2 [1 2] [0 2 0 0->0] [0 0 0 0->0]
r 1.051839745 _0_ RTR  --- 11 DSR 48 [0 ffffffff b 800] ------- [0:255 20:255 32 0] 2 [1 2] [0 2 0 0->0] [0 0 0 0->0]
r 1.051839796 _14_ RTR  --- 11 DSR 48 [0 ffffffff b 800] ------- [0:255 20:255 32 0] 2 [1 2] [0 2 0 0->0] [0 0 0 0->0]
s 1.052569238 _6_ MAC  --- 11 DSR 126 [0 ffffffff 6 800] ------- [0:255 20:255 32 0] 3 [1 2] [0 2 0 0->0] [0 0 0 0->0]
f 1.052623918 _14_ RTR  --- 11 DSR 68 [0 ffffffff b 800] ------- [0:255 20:255 32 0] 3 [1 2] [0 2 0 0->0] [0 0 0 0->0]
f 1.053229174 _8_ RTR  --- 11 DSR 92 [0 ffffffff 15 800] ------- [0:255 20:255 32 0] 4 [1 2] [0 2 0 0->0] [0 0 0 0->0]
s 1.053278918 _14_ MAC  --- 11 DSR 126 [0 ffffffff e 800] ------- [0:255 20:255 32 0] 3 [1 2] [0 2 0 0->0] [0 0 0 0->0]
r 1.053577736 _21_ MAC  --- 11 DSR 68 [0 ffffffff 6 800] ------- [0:255 20:255 32 0] 3 [1 2] [0 2 0 0->0] [0 0 0 0->0]
r 1.053577784 _22_ MAC  --- 11 DSR 68 [0 ffffffff 6 800] ------- [0:255 20:255 32 0] 3 [1 2] [0 2 0 0->0] [0 0 0 0->0]
r 1.053577834 _13_ MAC  --- 11 DSR 68 [0 ffffffff 6 800] ------- [0:255 20:255 32 0] 3 [1 2] [0 2 0 0->0] [0 0 0 0->0]
r 1.053577989 _3_ MAC  --- 11 DSR 68 [0 ffffffff 6 800] ------- [0:255 20:255 32 0] 3 [1 2] [0 2 0 0->0] [0 0 0 0->0]
r 1.053602736 _21_ RTR  --- 11 DSR 68 [0 ffffffff 6 800] ------- [0:255 20:255 32 0] 3 [1 2] [0 2 0 0->0] [0 0 0 0->0]
r 1.053602784 _22_ RTR  --- 11 DSR 68 [0 ffffffff 6 800] ------- [0:255 20:255 32 0] 3 [1 2] [0 2 0 0->0] [0 0 0 0->0]
r 1.053602834 _13_ RTR  --- 11 DSR 68 [0 ffffffff 6 800] ------- [0:255 20:255 32 0] 3 [1 2] [0 2 0 0->0] [0 0 0 0->0]
r 1.053602989 _3_ RTR  --- 11 DSR 68 [0 ffffffff 6 800] ------- [0:255 20:255 32 0] 3 [1 2] [0 2 0 0->0] [0 0 0 0->0]
f 1.053695181 _3_ RTR  --- 11 DSR 68 [0 ffffffff 16 800] ------- [0:255 20:255 32 0] 3 [1 2] [0 2 0 0->0] [0 0 0 0->0]
D 1.054287122 _23_ MAC  COL 11 DSR 126 [0 ffffffff e 800] ------- [0:255 20:255 32 0] 3 [1 2] [0 2 0 0->0] [0 0 0 0->0]
r 1.054287504 _16_ MAC  --- 11 DSR 68 [0 ffffffff e 800] ------- [0:255 20:255 32 0] 3 [1 2] [0 2 0 0->0] [0 0 0 0->0]
r 1.054287579 _19_ MAC  --- 11 DSR 68 [0 ffffffff e 800] ------- [0:255 20:255 32 0] 3 [1 2] [0 2 0 0->0] [0 0 0 0->0]
D 1.054287582 _10_ MAC  COL 11 DSR 126 [0 ffffffff e 800] ------- [0:255 20:255 32 0] 3 [1 2] [0 2 0 0->0] [0 0 0 0->0]
r 1.054287603 _24_ MAC  --- 11 DSR 68 [0 ffffffff e 800] ------- [0:255 20:255 32 0] 3 [1 2] [0 2 0 0->0] [0 0 0 0->0]
D 1.054287661 _11_ MAC  COL 11 DSR 126 [0 ffffffff e 800] ------- [0:255 20:255 32 0] 3 [1 2] [0 2 0 0->0] [0 0 0 0->0]
D 1.054287742 _4_ MAC  COL 11 DSR 126 [0 ffffffff e 800] ------- [0:255 20:255 32 0] 3 [1 2] [0 2 0 0->0] [0 0 0 0->0]
r 1.054312504 _16_ RTR  --- 11 DSR 68 [0 ffffffff e 800] ------- [0:255 20:255 32 0] 3 [1 2] [0 2 0 0->0] [0 0 0 0->0]
r 1.054312579 _19_ RTR  --- 11 DSR 68 [0 ffffffff e 800] ------- [0:255 20:255 32 0] 3 [1 2] [0 2 0 0->0] [0 0 0 0->0]
r 1.054312603 _24_ RTR  --- 11 DSR 68 [0 ffffffff e 800] ------- [0:255 20:255 32 0] 3 [1 2] [0 2 0 0->0] [0 0 0 0->0]
f 1.054378367 _23_ RTR  --- 11 DSR 68 [0 ffffffff b 800] ------- [0:255 20:255 32 0] 3 [1 2] [0 2 0 0->0] [0 0 0 0->0]
f 1.054407101 _19_ RTR  --- 11 DSR 92 [0 ffffffff e 800] ------- [0:255 20:255 32 0] 4 [1 2] [0 2 0 0->0] [0 0 0 0->0]
s 1.054572382 _8_ MAC  --- 11 DSR 150 [0 ffffffff 8 800] ------- [0:255 20:255 32 0] 4 [1 2] [0 2 0 0->0] [0 0 0 0->0]
s 1.054742101 _19_ MAC  --- 11 DSR 150 [0 ffffffff 13 800] ------- [0:255 20:255 32 0] 4 [1 2] [0 2 0 0->0] [0 0 0 0->0]
f 1.055744857 _15_ RTR  --- 11 DSR 92 [0 ffffffff 15 800] ------- [0:255 20:255 32 0] 4 [1 2] [0 2 0 0->0] [0 0 0 0->0]
r 1.055772935 _13_ MAC  --- 11 DSR 92 [0 ffffffff 8 800] ------- [0:255 20:255 32 0] 4 [1 2] [0 2 0 0->0] [0 0 0 0->0]
r 1.055773054 _15_ MAC  --- 11 DSR 92 [0 ffffffff 8 800] ------- [0:255 20:255 32 0] 4 [1 2] [0 2 0 0->0] [0 0 0 0->0]
r 1.055773095 _21_ MAC  --- 11 DSR 92 [0 ffffffff 8 800] ------- [0:255 20:255 32 0] 4 [1 2] [0 2 0 0->0] [0 0 0 0->0]
r 1.055797935 _13_ RTR  --- 11 DSR 92 [0 ffffffff 8 800] ------- [0:255 20:255 32 0] 4 [1 2] [0 2 0 0->0] [0 0 0 0->0]
r 1.055798054 _15_ RTR  --- 11 DSR 92 [0 ffffffff 8 800] ------- [0:255 20:255 32 0] 4 [1 2] [0 2 0 0->0] [0 0 0 0->0]
r 1.055798095 _21_ RTR  --- 11 DSR 92 [0 ffffffff 8 800] ------- [0:255 20:255 32 0] 4 [1 2] [0 2 0 0->0] [0 0 0 0->0]
r 1.055942619 _16_ MAC  --- 11 DSR 92 [0 ffffffff 13 800] ------- [0:255 20:255 32 0] 4 [1 2] [0 2 0 0->0] [0 0 0 0->0]
r 1.055942639 _7_ MAC  --- 11 DSR 92 [0 ffffffff 13 800] ------- [0:255 20:255 32 0] 4 [1 2] [0 2 0 0->0] [0 0 0 0->0]
r 1.055942650 _10_ MAC  --- 11 DSR 92 [0 ffffffff 13 800] ------- [0:255 20:255 32 0] 4 [1 2] [0 2 0 0->0] [0 0 0 0->0]
r 1.055942762 _14_ MAC  --- 11 DSR 92 [0 ffffffff 13 800] ------- [0:255 20:255 32 0] 4 [1 2] [0 2 0 0->0] [0 0 0 0->0]
r 1.055942789 _17_ MAC  --- 11 DSR 92 [0 ffffffff 13 800] ------- [0:255 20:255 32 0] 4 [1 2] [0 2 0 0->0] [0 0 0 0->0]
r 1.055942920 _23_ MAC  --- 11 DSR 92 [0 ffffffff 13 800] ------- [0:255 20:255 32 0] 4 [1 2] [0 2 0 0->0] [0 0 0 0->0]
r 1.055942928 _2_ MAC  --- 11 DSR 92 [0 ffffffff 13 800] ------- [0:255 20:255 32 0] 4 [1 2] [0 2 0 0->0] [0 0 0 0->0]
r 1.055967619 _16_ RTR  --- 11 DSR 92 [0 ffffffff 13 800] ------- [0:255 20:255 32 0] 4 [1 2] [0 2 0 0->0] [0 0 0 0->0]
r 1.055967639 _7_ RTR  --- 11 DSR 92 [0 ffffffff 13 800] ------- [0:255 20:255 32 0] 4 [1 2] [0 2 0 0->0] [0 0 0 0->0]
r 1.055967650 _10_ RTR  --- 11 DSR 92 [0 ffffffff 13 800] ------- [0:255 20:255 32 0] 4 [1 2] [0 2 0 0->0] [0 0 0 0->0]
r 1.055967762 _14_ RTR  --- 11 DSR 92 [0 ffffffff 13 800] ------- [0:255 20:255 32 0] 4 [1 2] [0 2 0 0->0] [0 0 0 0->0]
r 1.055967789 _17_ RTR  --- 11 DSR 92 [0 ffffffff 13 800] ------- [0:255 20:255 32 0] 4 [1 2] [0 2 0 0->0] [0 0 0 0->0]
r 1.055967920 _23_ RTR  --- 11 DSR 92 [0 ffffffff 13 800] ------- [0:255 20:255 32 0] 4 [1 2] [0 2 0 0->0] [0 0 0 0->0]
r 1.055967928 _2_ RTR  --- 11 DSR 92 [0 ffffffff 13 800] ------- [0:255 20:255 32 0] 4 [1 2] [0 2 0 0->0] [0 0 0 0->0]
s 1.056000000 _0_ AGT  --- 22 cbr 1000 [0 0 0 0] ------- [0:0 20:0 32 0] [7] 0 0
r 1.056000000 _0_ RTR  --- 22 cbr 1000 [0 0 0 0] ------- [0:0 20:0 32 0] [7] 0 0
s 1.056092920 _23_ MAC  --- 11 DSR 126 [0 ffffffff 17 800] ------- [0:255 20:255 32 0] 3 [1 2] [0 2 0 0->0] [0 0 0 0->0]
f 1.056316351 _13_ RTR  --- 11 DSR 92 [0 ffffffff 15 800] ------- [0:255 20:255 32 0] 4 [1 2] [0 2 0 0->0] [0 0 0 0->0]
f 1.056316945 _4_ RTR  --- 11 DSR 68 [0 ffffffff 16 800] ------- [0:255 20:255 32 0] 3 [1 2] [0 2 0 0->0] [0 0 0 0->0]
r 1.057101125 _14_ MAC  --- 11 DSR 68 [0 ffffffff 17 800] ------- [0:255 20:255 32 0] 3 [1 2] [0 2 0 0->0] [0 0 0 0->0]
r 1.057101506 _11_ MAC  --- 11 DSR 68 [0 ffffffff 17 800] ------- [0:255 20:255 32 0] 3 [1 2] [0 2 0 0->0] [0 0 0 0->0]
r 1.057101543 _4_ MAC  --- 11 DSR 68 [0 ffffffff 17 800] ------- [0:255 20:255 32 0] 3 [1 2] [0 2 0 0->0] [0 0 0 0->0]
r 1.057101603 _10_ MAC  --- 11 DSR 68 [0 ffffffff 17 800] ------- [0:255 20:255 32 0] 3 [1 2] [0 2 0 0->0] [0 0 0 0->0]
r 1.057101632 _24_ MAC  --- 11 DSR 68 [0 ffffffff 17 800] ------- [0:255 20:255 32 0] 3 [1 2] [0 2 0 0->0] [0 0 0 0->0]
r 1.057101710 _16_ MAC  --- 11 DSR 68 [0 ffffffff 17 800] ------- [0:255 20:255 32 0] 3 [1 2] [0 2 0 0->0] [0 0 0 0->0]
r 1.057101734 _20_ MAC  --- 11 DSR 68 [0 ffffffff 17 800] ------- [0:255 20:255 32 0] 3 [1 2] [0 2 0 0->0] [0 0 0 0->0]
r 1.057101739 _19_ MAC  --- 11 DSR 68 [0 ffffffff 17 800] ------- [0:255 20:255 32 0] 3 [1 2] [0 2 0 0->0] [0 0 0 0->0]
r 1.057126125 _14_ RTR  --- 11 DSR 68 [0 ffffffff 17 800] ------- [0:255 20:255 32 0] 3 [1 2] [0 2 0 0->0] [0 0 0 0->0]
r 1.057126506 _11_ RTR  --- 11 DSR 68 [0 ffffffff 17 800] ------- [0:255 20:255 32 0] 3 [1 2] [0 2 0 0->0] [0 0 0 0->0]
r 1.057126543 _4_ RTR  --- 11 DSR 68 [0 ffffffff 17 800] ------- [0:255 20:255 32 0] 3 [1 2] [0 2 0 0->0] [0 0 0 0->0]
r 1.057126603 _10_ RTR  --- 11 DSR 68 [0 ffffffff 17 800] ------- [0:255 20:255 32 0] 3 [1 2] [0 2 0 0->0] [0 0 0 0->0]
r 1.057126632 _24_ RTR  --- 11 DSR 68 [0 ffffffff 17 800] ------- [0:255 20:255 32 0] 3 [1 2] [0 2 0 0->0] [0 0 0 0->0]
r 1.057126710 _16_ RTR  --- 11 DSR 68 [0 ffffffff 17 800] ------- [0:255 20:255 32 0] 3 [1 2] [0 2 0 0->0] [0 0 0 0->0]
r 1.057126734 _20_ RTR  --- 11 DSR 68 [0 ffffffff 17 800] ------- [0:255 20:255 32 0] 3 [1 2] [0 2 0 0->0] [0 0 0 0->0]
r 1.057126739 _19_ RTR  --- 11 DSR 68 [0 ffffffff 17 800] ------- [0:255 20:255 32 0] 3 [1 2] [0 2 0 0->0] [0 0 0 0->0]
f 1.057457615 _16_ RTR  --- 11 DSR 92 [0 ffffffff e 800] ------- [0:255 20:255 32 0] 4 [1 2] [0 2 0 0->0] [0 0 0 0->0]
s 1.057491543 _4_ MAC  --- 11 DSR 126 [0 ffffffff 4 800] ------- [0:255 20:255 32 0] 3 [1 2] [0 2 0 0->0] [0 0 0 0->0]
f 1.057684977 _2_ RTR  --- 11 DSR 92 [0 ffffffff 1 800] ------- [0:255 20:255 32 0] 4 [1 2] [0 2 0 0->0] [0 0 0 0->0]
s 1.057899977 _2_ MAC  --- 11 DSR 150 [0 ffffffff 2 800] ------- [0:255 20:255 32 0] 4 [1 2] [0 2 0 0->0] [0 0 0 0->0]
f 1.058218085 _10_ RTR  --- 11 DSR 92 [0 ffffffff 12 800] ------- [0:255 20:255 32 0] 4 [1 2] [0 2 0 0->0] [0 0 0 0->0]
r 1.058500029 _5_ MAC  --- 11 DSR 68 [0 ffffffff 4 800] ------- [0:255 20:255 32 0] 3 [1 2] [0 2 0 0->0] [0 0 0 0->0]
r 1.058500068 _3_ MAC  --- 11 DSR 68 [0 ffffffff 4 800] ------- [0:255 20:255 32 0] 3 [1 2] [0 2 0 0->0] [0 0 0 0->0]
r 1.058500121 _11_ MAC  --- 11 DSR 68 [0 ffffffff 4 800] ------- [0:255 20:255 32 0] 3 [1 2] [0 2 0 0->0] [0 0 0 0->0]
r 1.058500166 _23_ MAC  --- 11 DSR 68 [0 ffffffff 4 800] ------- [0:255 20:255 32 0] 3 [1 2] [0 2 0 0->0] [0 0 0 0->0]
r 1.058500223 _20_ MAC  --- 11 DSR 68 [0 ffffffff 4 800] ------- [0:255 20:255 32 0] 3 [1 2] [0 2 0 0->0] [0 0 0 0->0]
r 1.058500315 _9_ MAC  --- 11 DSR 68 [0 ffffffff 4 800] ------- [0:255 20:255 32 0] 3 [1 2] [0 2 0 0->0] [0 0 0 0->0]
r 1.058500351 _15_ MAC  --- 11 DSR 68 [0 ffffffff 4 800] ------- [0:255 20:255 32 0] 3 [1 2] [0 2 0 0->0] [0 0 0 0->0]
r 1.058500367 _22_ MAC  --- 11 DSR 68 [0 ffffffff 4 800] ------- [0:255 20:255 32 0] 3 [1 2] [0 2 0 0->0] [0 0 0 0->0]
r 1.058500367 _14_ MAC  --- 11 DSR 68 [0 ffffffff 4 800] ------- [0:255 20:255 32 0] 3 [1 2] [0 2 0 0->0] [0 0 0 0->0]
r 1.058525029 _5_ RTR  --- 11 DSR 68 [0 ffffffff 4 800] ------- [0:255 20:255 32 0] 3 [1 2] [0 2 0 0->0] [0 0 0 0->0]
r 1.058525068 _3_ RTR  --- 11 DSR 68 [0 ffffffff 4 800] ------- [0:255 20:255 32 0] 3 [1 2] [0 2 0 0->0] [0 0 0 0->0]
r 1.058525121 _11_ RTR  --- 11 DSR 68 [0 ffffffff 4 800] ------- [0:255 20:255 32 0] 3 [1 2] [0 2 0 0->0] [0 0 0 0->0]
r 1.058525166 _23_ RTR  --- 11 DSR 68 [0 ffffffff 4 800] ------- [0:255 20:255 32 0] 3 [1 2] [0 2 0 0->0] [0 0 0 0->0]
r 1.058525223 _20_ RTR  --- 11 DSR 68 [0 ffffffff 4 800] ------- [0:255 20:255 32 0] 3 [1 2] [0 2 0 0->0] [0 0 0 0->0]
r 1.058525315 _9_ RTR  --- 11 DSR 68 [0 ffffffff 4 800] ------- [0:255 20:255 32 0] 3 [1 2] [0 2 0 0->0] [0 0 0 0->0]
r 1.058525351 _15_ RTR  --- 11 DSR 68 [0 ffffffff 4 800] ------- [0:255 20:255 32 0] 3 [1 2] [0 2 0 0->0] [0 0 0 0->0]
r 1.058525367 _22_ RTR  --- 11 DSR 68 [0 ffffffff 4 800] ------- [0:255 20:255 32 0] 3 [1 2] [0 2 0 0->0] [0 0 0 0->0]
r 1.058525367 _14_ RTR  --- 11 DSR 68 [0 ffffffff 4 800] ------- [0:255 20:255 32 0] 3 [1 2] [0 2 0 0->0] [0 0 0 0->0]
s 1.058570068 _3_ MAC  --- 11 DSR 126 [0 ffffffff 3 800] ------- [0:255 20:255 32 0] 3 [1 2] [0 2 0 0->0] [0 0 0 0->0]
r 1.059100331 _7_ MAC  --- 11 DSR 92 [0 ffffffff 2 800] ------- [0:255 20:255 32 0] 4 [1 2] [0 2 0 0->0] [0 0 0 0->0]
r 1.059100541 _17_ MAC  --- 11 DSR 92 [0 ffffffff 2 800] ------- [0:255 20:255 32 0] 4 [1 2] [0 2 0 0->0] [0 0 0 0->0]
r 1.059100720 _1_ MAC  --- 11 DSR 92 [0 ffffffff 2 800] ------- [0:255 20:255 32 0] 4 [1 2] [0 2 0 0->0] [0 0 0 0->0]
D 1.059100763 _18_ MAC  COL 11 DSR 150 [0 ffffffff 2 800] ------- [0:255 20:255 32 0] 4 [1 2] [0 2 0 0->0] [0 0 0 0->0]
D 1.059100804 _19_ MAC  COL 11 DSR 150 [0 ffffffff 2 800] ------- [0:255 20:255 32 0] 4 [1 2] [0 2 0 0->0] [0 0 0 0->0]
f 1.059103889 _9_ RTR  --- 11 DSR 92 [0 ffffffff 4 800] ------- [0:255 20:255 32 0] 4 [1 2] [0 2 0 0->0] [0 0 0 0->0]
r 1.059125331 _7_ RTR  --- 11 DSR 92 [0 ffffffff 2 800] ------- [0:255 20:255 32 0] 4 [1 2] [0 2 0 0->0] [0 0 0 0->0]
r 1.059125541 _17_ RTR  --- 11 DSR 92 [0 ffffffff 2 800] ------- [0:255 20:255 32 0] 4 [1 2] [0 2 0 0->0] [0 0 0 0->0]
r 1.059125720 _1_ RTR  --- 11 DSR 92 [0 ffffffff 2 800] ------- [0:255 20:255 32 0] 4 [1 2] [0 2 0 0->0] [0 0 0 0->0]
r 1.059578459 _21_ MAC  --- 11 DSR 68 [0 ffffffff 3 800] ------- [0:255 20:255 32 0] 3 [1 2] [0 2 0 0->0] [0 0 0 0->0]
r 1.059578573 _15_ MAC  --- 11 DSR 68 [0 ffffffff 3 800] ------- [0:255 20:255 32 0] 3 [1 2] [0 2 0 0->0] [0 0 0 0->0]
r 1.059578593 _4_ MAC  --- 11 DSR 68 [0 ffffffff 3 800] ------- [0:255 20:255 32 0] 3 [1 2] [0 2 0 0->0] [0 0 0 0->0]
r 1.059578612 _13_ MAC  --- 11 DSR 68 [0 ffffffff 3 800] ------- [0:255 20:255 32 0] 3 [1 2] [0 2 0 0->0] [0 0 0 0->0]
r 1.059578692 _5_ MAC  --- 11 DSR 68 [0 ffffffff 3 800] ------- [0:255 20:255 32 0] 3 [1 2] [0 2 0 0->0] [0 0 0 0->0]
r 1.059578728 _9_ MAC  --- 11 DSR 68 [0 ffffffff 3 800] ------- [0:255 20:255 32 0] 3 [1 2] [0 2 0 0->0] [0 0 0 0->0]
r 1.059578819 _6_ MAC  --- 11 DSR 68 [0 ffffffff 3 800] ------- [0:255 20:255 32 0] 3 [1 2] [0 2 0 0->0] [0 0 0 0->0]
r 1.059578821 _22_ MAC  --- 11 DSR 68 [0 ffffffff 3 800] ------- [0:255 20:255 32 0] 3 [1 2] [0 2 0 0->0] [0 0 0 0->0]
r 1.059603459 _21_ RTR  --- 11 DSR 68 [0 ffffffff 3 800] ------- [0:255 20:255 32 0] 3 [1 2] [0 2 0 0->0] [0 0 0 0->0]
r 1.059603573 _15_ RTR  --- 11 DSR 68 [0 ffffffff 3 800] ------- [0:255 20:255 32 0] 3 [1 2] [0 2 0 0->0] [0 0 0 0->0]
r 1.059603593 _4_ RTR  --- 11 DSR 68 [0 ffffffff 3 800] ------- [0:255 20:255 32 0] 3 [1 2] [0 2 0 0->0] [0 0 0 0->0]
r 1.059603612 _13_ RTR  --- 11 DSR 68 [0 ffffffff 3 800] ------- [0:255 20:255 32 0] 3 [1 2] [0 2 0 0->0] [0 0 0 0->0]
r 1.059603692 _5_ RTR  --- 11 DSR 68 [0 ffffffff 3 800] ------- [0:255 20:255 32 0] 3 [1 2] [0 2 0 0->0] [0 0 0 0->0]
r 1.059603728 _9_ RTR  --- 11 DSR 68 [0 ffffffff 3 800] ------- [0:255 20:255 32 0] 3 [1 2] [0 2 0 0->0] [0 0 0 0->0]
r 1.059603819 _6_ RTR  --- 11 DSR 68 [0 ffffffff 3 800] ------- [0:255 20:255 32 0] 3 [1 2] [0 2 0 0->0] [0 0 0 0->0]
r 1.059603821 _22_ RTR  --- 11 DSR 68 [0 ffffffff 3 800] ------- [0:255 20:255 32 0] 3 [1 2] [0 2 0 0->0] [0 0 0 0->0]
s 1.059708612 _13_ MAC  --- 11 DSR 150 [0 ffffffff d 800] ------- [0:255 20:255 32 0] 4 [1 2] [0 2 0 0->0] [0 0 0 0->0]
s 1.059875243 _16_ MAC  --- 11 DSR 150 [0 ffffffff 10 800] ------- [0:255 20:255 32 0] 4 [1 2] [0 2 0 0->0] [0 0 0 0->0]
f 1.060839150 _5_ RTR  --- 11 DSR 92 [0 ffffffff 4 800] ------- [0:255 20:255 32 0] 4 [1 2] [0 2 0 0->0] [0 0 0 0->0]
s 1.060892493 _20_ RTR  --- 24 DSR 60 [0 0 0 0] ------- [20:255 0:255 254 23] 4 [0 2] [1 2 4 0->20] [0 0 0 0->0]
r 1.060908805 _21_ MAC  --- 11 DSR 92 [0 ffffffff d 800] ------- [0:255 20:255 32 0] 4 [1 2] [0 2 0 0->0] [0 0 0 0->0]
r 1.060909155 _3_ MAC  --- 11 DSR 92 [0 ffffffff d 800] ------- [0:255 20:255 32 0] 4 [1 2] [0 2 0 0->0] [0 0 0 0->0]
r 1.060909164 _8_ MAC  --- 11 DSR 92 [0 ffffffff d 800] ------- [0:255 20:255 32 0] 4 [1 2] [0 2 0 0->0] [0 0 0 0->0]
r 1.060909208 _6_ MAC  --- 11 DSR 92 [0 ffffffff d 800] ------- [0:255 20:255 32 0] 4 [1 2] [0 2 0 0->0] [0 0 0 0->0]
r 1.060909315 _15_ MAC  --- 11 DSR 92 [0 ffffffff d 800] ------- [0:255 20:255 32 0] 4 [1 2] [0 2 0 0->0] [0 0 0 0->0]
r 1.060933805 _21_ RTR  --- 11 DSR 92 [0 ffffffff d 800] ------- [0:255 20:255 32 0] 4 [1 2] [0 2 0 0->0] [0 0 0 0->0]
r 1.060934155 _3_ RTR  --- 11 DSR 92 [0 ffffffff d 800] ------- [0:255 20:255 32 0] 4 [1 2] [0 2 0 0->0] [0 0 0 0->0]
r 1.060934164 _8_ RTR  --- 11 DSR 92 [0 ffffffff d 800] ------- [0:255 20:255 32 0] 4 [1 2] [0 2 0 0->0] [0 0 0 0->0]
r 1.060934208 _6_ RTR  --- 11 DSR 92 [0 ffffffff d 800] ------- [0:255 20:255 32 0] 4 [1 2] [0 2 0 0->0] [0 0 0 0->0]
r 1.060934315 _15_ RTR  --- 11 DSR 92 [0 ffffffff d 800] ------- [0:255 20:255 32 0] 4 [1 2] [0 2 0 0->0] [0 0 0 0->0]
r 1.061075760 _19_ MAC  --- 11 DSR 92 [0 ffffffff 10 800] ------- [0:255 20:255 32 0] 4 [1 2] [0 2 0 0->0] [0 0 0 0->0]
r 1.061075828 _14_ MAC  --- 11 DSR 92 [0 ffffffff 10 800] ------- [0:255 20:255 32 0] 4 [1 2] [0 2 0 0->0] [0 0 0 0->0]
D 1.061076032 _23_ MAC  COL 11 DSR 150 [0 ffffffff 10 800] ------- [0:255 20:255 32 0] 4 [1 2] [0 2 0 0->0] [0 0 0 0->0]
r 1.061100760 _19_ RTR  --- 11 DSR 92 [0 ffffffff 10 800] ------- [0:255 20:255 32 0] 4 [1 2] [0 2 0 0->0] [0 0 0 0->0]
r 1.061100828 _14_ RTR  --- 11 DSR 92 [0 ffffffff 10 800] ------- [0:255 20:255 32 0] 4 [1 2] [0 2 0 0->0] [0 0 0 0->0]
s 1.061159315 _15_ MAC  --- 11 DSR 150 [0 ffffffff f 800] ------- [0:255 20:255 32 0] 4 [1 2] [0 2 0 0->0] [0 0 0 0->0]
s 1.061271898 _20_ RTR  --- 25 DSR 60 [0 0 0 0] ------- [20:255 0:255 254 4] 4 [0 2] [1 2 4 0->20] [0 0 0 0->0]
s 1.061590184 _10_ MAC  --- 11 DSR 150 [0 ffffffff a 800] ------- [0:255 20:255 32 0] 4 [1 2] [0 2 0 0->0] [0 0 0 0->0]
D 1.061591288 _4_ MAC  COL 11 DSR 150 [0 ffffffff f 800] ------- [0:255 20:255 32 0] 4 [1 2] [0 2 0 0->0] [0 0 0 0->0]
r 1.062359591 _9_ MAC  --- 11 DSR 92 [0 ffffffff f 800] ------- [0:255 20:255 32 0] 4 [1 2] [0 2 0 0->0] [0 0 0 0->0]
r 1.062359819 _3_ MAC  --- 11 DSR 92 [0 ffffffff f 800] ------- [0:255 20:255 32 0] 4 [1 2] [0 2 0 0->0] [0 0 0 0->0]
r 1.062359840 _5_ MAC  --- 11 DSR 92 [0 ffffffff f 800] ------- [0:255 20:255 32 0] 4 [1 2] [0 2 0 0->0] [0 0 0 0->0]
r 1.062359988 _8_ MAC  --- 11 DSR 92 [0 ffffffff f 800] ------- [0:255 20:255 32 0] 4 [1 2] [0 2 0 0->0] [0 0 0 0->0]
r 1.062360000 _21_ MAC  --- 11 DSR 92 [0 ffffffff f 800] ------- [0:255 20:255 32 0] 4 [1 2] [0 2 0 0->0] [0 0 0 0->0]
r 1.062360018 _13_ MAC  --- 11 DSR 92 [0 ffffffff f 800] ------- [0:255 20:255 32 0] 4 [1 2] [0 2 0 0->0] [0 0 0 0->0]
r 1.062384591 _9_ RTR  --- 11 DSR 92 [0 ffffffff f 800] ------- [0:255 20:255 32 0] 4 [1 2] [0 2 0 0->0] [0 0 0 0->0]
r 1.062384819 _3_ RTR  --- 11 DSR 92 [0 ffffffff f 800] ------- [0:255 20:255 32 0] 4 [1 2] [0 2 0 0->0] [0 0 0 0->0]
r 1.062384840 _5_ RTR  --- 11 DSR 92 [0 ffffffff f 800] ------- [0:255 20:255 32 0] 4 [1 2] [0 2 0 0->0] [0 0 0 0->0]
r 1.062384988 _8_ RTR  --- 11 DSR 92 [0 ffffffff f 800] ------- [0:255 20:255 32 0] 4 [1 2] [0 2 0 0->0] [0 0 0 0->0]
r 1.062385000 _21_ RTR  --- 11 DSR 92 [0 ffffffff f 800] ------- [0:255 20:255 32 0] 4 [1 2] [0 2 0 0->0] [0 0 0 0->0]
r 1.062385018 _13_ RTR  --- 11 DSR 92 [0 ffffffff f 800] ------- [0:255 20:255 32 0] 4 [1 2] [0 2 0 0->0] [0 0 0 0->0]
s 1.062689591 _9_ MAC  --- 11 DSR 150 [0 ffffffff 9 800] ------- [0:255 20:255 32 0] 4 [1 2] [0 2 0 0->0] [0 0 0 0->0]
r 1.062790732 _19_ MAC  --- 11 DSR 92 [0 ffffffff a 800] ------- [0:255 20:255 32 0] 4 [1 2] [0 2 0 0->0] [0 0 0 0->0]