n -t * -s 0  -x 573 -y 357 -Z 0 -z 20  -v circle -c black
n -t * -s 1  -x 227 -y 294 -Z 0 -z 20  -v circle -c black
n -t * -s 2  -x 103 -y 109 -Z 0 -z 20  -v circle -c black
n -t * -s 3  -x 882 -y 112 -Z 0 -z 20  -v circle -c black
n -t * -s 4  -x 739 -y 46 -Z 0 -z 20  -v circle -c black
n -t * -s 5  -x 830 -y -68 -Z 0 -z 20  -v circle -c black
n -t * -s 6  -x 905 -y 336 -Z 0 -z 20  -v circle -c black
n -t * -s 7  -x 161 -y 20 -Z 0 -z 20  -v circle -c black
n -t * -s 8  -x 1187 -y 99 -Z 0 -z 20  -v circle -c black
n -t * -s 9  -x 934 -y -79 -Z 0 -z 20  -v circle -c black
n -t * -s 10  -x 416 -y 120 -Z 0 -z 20  -v circle -c black
n -t * -s 11  -x 601 -y 151 -Z 0 -z 20  -v circle -c black
n -t * -s 12  -x 354 -y 419 -Z 0 -z 20  -v circle -c black
n -t * -s 13  -x 1020 -y 199 -Z 0 -z 20  -v circle -c black
n -t * -s 14  -x 513 -y -54 -Z 0 -z 20  -v circle -c black
n -t * -s 15  -x 1019 -y -17 -Z 0 -z 20  -v circle -c black
n -t * -s 16  -x 351 -y -184 -Z 0 -z 20  -v circle -c black
n -t * -s 17  -x 54 -y -84 -Z 0 -z 20  -v circle -c black
n -t * -s 18  -x 278 -y 267 -Z 0 -z 20  -v circle -c black
n -t * -s 19  -x 319 -y -13 -Z 0 -z 20  -v circle -c black
n -t * -s 20  -x 768 -y -156 -Z 0 -z 20  -v circle -c black
n -t * -s 21  -x 962 -y 198 -Z 0 -z 20  -v circle -c black
n -t * -s 22  -x 747 -y 293 -Z 0 -z 20  -v circle -c black
n -t * -s 23  -x 589 -y -56 -Z 0 -z 20  -v circle -c black
n -t * -s 24  -x 627 -y -225 -Z 0 -z 20  -v circle -c black
V -t * -v 1.0a5 -a 0
W -t * -x 2146 -y 380
A -t * -n 1 -p 0 -o 0x7fffffff -c 30 -a 1
A -t * -h 1 -m 1073741823 -s 0
n -t 0.200000 -s 17 -x 54.000000 -y -84.000000 -U 74.748346 -V 28.507627 -T 8.909896
n -t 0.200000 -s 23 -x 589.000000 -y -56.000000 -U -28.535177 -V 41.057809 -T 4.871181
n -t 0.300000 -s 8 -x 1187.000000 -y 99.000000 -U -49.748467 -V -5.008999 -T 8.784190
n -t 0.400000 -s 16 -x 351.000000 -y -184.000000 -U 32.219473 -V 38.234873 -T 12.135518
n -t 0.500000 -s 15 -x 1019.000000 -y -17.000000 -U -78.048780 -V 17.560976 -T 3.587500
+ -t 1.000000000 -s 0 -d -1 -p cbr -e 1000 -c 2 -a 0 -i 0 -k AGT 
- -t 1.000000000 -s 0 -d -1 -p cbr -e 1000 -c 2 -a 0 -i 0 -k AGT
h -t 1.000000000 -s 0 -d -1 -p cbr -e 1000 -c 2 -a 0 -i 0 -k AGT
+ -t 1.005895852 -s 0 -d -1 -p DSR -e 32 -c 2 -a 0 -i 1 -k RTR 
- -t 1.005895852 -s 0 -d -1 -p DSR -e 32 -c 2 -a 0 -i 1 -k RTR
h -t 1.005895852 -s 0 -d -1 -p DSR -e 32 -c 2 -a 0 -i 1 -k RTR
+ -t 1.006250852 -s 0 -d -1 -p DSR -e 90 -c 2 -a 0 -i 1 -k MAC 
- -t 1.006250852 -s 0 -d -1 -p DSR -e 90 -c 2 -a 0 -i 1 -k MAC
h -t 1.006250852 -s 0 -d -1 -p DSR -e 90 -c 2 -a 0 -i 1 -k MAC
r -t 1.006971470 -s 22 -d -1 -p DSR -e 32 -c 2 -a 0 -i 1 -k MAC
r -t 1.006971545 -s 11 -d -1 -p DSR -e 32 -c 2 -a 0 -i 1 -k MAC
r -t 1.006971611 -s 12 -d -1 -p DSR -e 32 -c 2 -a 0 -i 1 -k MAC
+ -t 1.008000000 -s 0 -d -1 -p cbr -e 1000 -c 2 -a 0 -i 2 -k AGT 
- -t 1.008000000 -s 0 -d -1 -p cbr -e 1000 -c 2 -a 0 -i 2 -k AGT
h -t 1.008000000 -s 0 -d -1 -p cbr -e 1000 -c 2 -a 0 -i 2 -k AGT
+ -t 1.016000000 -s 0 -d -1 -p cbr -e 1000 -c 2 -a 0 -i 6 -k AGT 
- -t 1.016000000 -s 0 -d -1 -p cbr -e 1000 -c 2 -a 0 -i 6 -k AGT
h -t 1.016000000 -s 0 -d -1 -p cbr -e 1000 -c 2 -a 0 -i 6 -k AGT
+ -t 1.024000000 -s 0 -d -1 -p cbr -e 1000 -c 2 -a 0 -i 8 -k AGT 
- -t 1.024000000 -s 0 -d -1 -p cbr -e 1000 -c 2 -a 0 -i 8 -k AGT
h -t 1.024000000 -s 0 -d -1 -p cbr -e 1000 -c 2 -a 0 -i 8 -k AGT
+ -t 1.032000000 -s 0 -d -1 -p cbr -e 1000 -c 2 -a 0 -i 10 -k AGT 
- -t 1.032000000 -s 0 -d -1 -p cbr -e 1000 -c 2 -a 0 -i 10 -k AGT
h -t 1.032000000 -s 0 -d -1 -p cbr -e 1000 -c 2 -a 0 -i 10 -k AGT
+ -t 1.037060886 -s 0 -d -1 -p DSR -e 32 -c 2 -a 0 -i 11 -k RTR 
- -t 1.037060886 -s 0 -d -1 -p DSR -e 32 -c 2 -a 0 -i 11 -k RTR
h -t 1.037060886 -s 0 -d -1 -p DSR -e 32 -c 2 -a 0 -i 11 -k RTR
+ -t 1.037575886 -s 0 -d -1 -p DSR -e 90 -c 2 -a 0 -i 11 -k MAC 
- -t 1.037575886 -s 0 -d -1 -p DSR -e 90 -c 2 -a 0 -i 11 -k MAC
h -t 1.037575886 -s 0 -d -1 -p DSR -e 90 -c 2 -a 0 -i 11 -k MAC
r -t 1.038296504 -s 22 -d -1 -p DSR -e 32 -c 2 -a 0 -i 11 -k MAC
r -t 1.038296579 -s 11 -d -1 -p DSR -e 32 -c 2 -a 0 -i 11 -k MAC
r -t 1.038296644 -s 12 -d -1 -p DSR -e 32 -c 2 -a 0 -i 11 -k MAC
+ -t 1.038804099 -s 12 -d -1 -p DSR -e 48 -c 2 -a 0 -i 11 -k RTR 
- -t 1.038804099 -s 12 -d -1 -p DSR -e 48 -c 2 -a 0 -i 11 -k RTR
h -t 1.038804099 -s 12 -d -1 -p DSR -e 48 -c 2 -a 0 -i 11 -k RTR
+ -t 1.039019099 -s 12 -d -1 -p DSR -e 106 -c 2 -a 0 -i 11 -k MAC 
- -t 1.039019099 -s 12 -d -1 -p DSR -e 106 -c 2 -a 0 -i 11 -k MAC
h -t 1.039019099 -s 12 -d -1 -p DSR -e 106 -c 2 -a 0 -i 11 -k MAC
r -t 1.039867665 -s 18 -d -1 -p DSR -e 48 -c 2 -a 0 -i 11 -k MAC
r -t 1.039867693 -s 1 -d -1 -p DSR -e 48 -c 2 -a 0 -i 11 -k MAC
r -t 1.039867857 -s 0 -d -1 -p DSR -e 48 -c 2 -a 0 -i 11 -k MAC
+ -t 1.040000000 -s 0 -d -1 -p cbr -e 1000 -c 2 -a 0 -i 12 -k AGT 
- -t 1.040000000 -s 0 -d -1 -p cbr -e 1000 -c 2 -a 0 -i 12 -k AGT
h -t 1.040000000 -s 0 -d -1 -p cbr -e 1000 -c 2 -a 0 -i 12 -k AGT
+ -t 1.045687974 -s 22 -d -1 -p DSR -e 48 -c 2 -a 0 -i 11 -k RTR 
- -t 1.045687974 -s 22 -d -1 -p DSR -e 48 -c 2 -a 0 -i 11 -k RTR
h -t 1.045687974 -s 22 -d -1 -p DSR -e 48 -c 2 -a 0 -i 11 -k RTR
+ -t 1.046102974 -s 22 -d -1 -p DSR -e 106 -c 2 -a 0 -i 11 -k MAC 
- -t 1.046102974 -s 22 -d -1 -p DSR -e 106 -c 2 -a 0 -i 11 -k MAC
h -t 1.046102974 -s 22 -d -1 -p DSR -e 106 -c 2 -a 0 -i 11 -k MAC
+ -t 1.046292041 -s 18 -d -1 -p DSR -e 68 -c 2 -a 0 -i 11 -k RTR 
- -t 1.046292041 -s 18 -d -1 -p DSR -e 68 -c 2 -a 0 -i 11 -k RTR
h -t 1.046292041 -s 18 -d -1 -p DSR -e 68 -c 2 -a 0 -i 11 -k RTR
r -t 1.046951519 -s 6 -d -1 -p DSR -e 48 -c 2 -a 0 -i 11 -k MAC
r -t 1.046951592 -s 0 -d -1 -p DSR -e 48 -c 2 -a 0 -i 11 -k MAC
r -t 1.046951653 -s 11 -d -1 -p DSR -e 48 -c 2 -a 0 -i 11 -k MAC
r -t 1.046951726 -s 3 -d -1 -p DSR -e 48 -c 2 -a 0 -i 11 -k MAC
r -t 1.046951757 -s 21 -d -1 -p DSR -e 48 -c 2 -a 0 -i 11 -k MAC
r -t 1.046951797 -s 4 -d -1 -p DSR -e 48 -c 2 -a 0 -i 11 -k MAC
+ -t 1.047204248 -s 1 -d -1 -p DSR -e 68 -c 2 -a 0 -i 11 -k RTR 
- -t 1.047204248 -s 1 -d -1 -p DSR -e 68 -c 2 -a 0 -i 11 -k RTR
h -t 1.047204248 -s 1 -d -1 -p DSR -e 68 -c 2 -a 0 -i 11 -k RTR
+ -t 1.047646707 -s 1 -d -1 -p DSR -e 126 -c 2 -a 0 -i 11 -k MAC 
- -t 1.047646707 -s 1 -d -1 -p DSR -e 126 -c 2 -a 0 -i 11 -k MAC
h -t 1.047646707 -s 1 -d -1 -p DSR -e 126 -c 2 -a 0 -i 11 -k MAC
+ -t 1.048000000 -s 0 -d -1 -p cbr -e 1000 -c 2 -a 0 -i 20 -k AGT 
- -t 1.048000000 -s 0 -d -1 -p cbr -e 1000 -c 2 -a 0 -i 20 -k AGT
h -t 1.048000000 -s 0 -d -1 -p cbr -e 1000 -c 2 -a 0 -i 20 -k AGT
+ -t 1.048231464 -s 11 -d -1 -p DSR -e 48 -c 2 -a 0 -i 11 -k RTR 
- -t 1.048231464 -s 11 -d -1 -p DSR -e 48 -c 2 -a 0 -i 11 -k RTR
h -t 1.048231464 -s 11 -d -1 -p DSR -e 48 -c 2 -a 0 -i 11 -k RTR
r -t 1.048654899 -s 18 -d -1 -p DSR -e 68 -c 2 -a 0 -i 11 -k MAC
r -t 1.048655301 -s 12 -d -1 -p DSR -e 68 -c 2 -a 0 -i 11 -k MAC
r -t 1.048655449 -s 2 -d -1 -p DSR -e 68 -c 2 -a 0 -i 11 -k MAC
+ -t 1.048807838 -s 21 -d -1 -p DSR -e 68 -c 2 -a 0 -i 11 -k RTR 
- -t 1.048807838 -s 21 -d -1 -p DSR -e 68 -c 2 -a 0 -i 11 -k RTR
h -t 1.048807838 -s 21 -d -1 -p DSR -e 68 -c 2 -a 0 -i 11 -k RTR
+ -t 1.048824899 -s 18 -d -1 -p DSR -e 126 -c 2 -a 0 -i 11 -k MAC 
- -t 1.048824899 -s 18 -d -1 -p DSR -e 126 -c 2 -a 0 -i 11 -k MAC
h -t 1.048824899 -s 18 -d -1 -p DSR -e 126 -c 2 -a 0 -i 11 -k MAC
+ -t 1.049482838 -s 21 -d -1 -p DSR -e 126 -c 2 -a 0 -i 11 -k MAC 
- -t 1.049482838 -s 21 -d -1 -p DSR -e 126 -c 2 -a 0 -i 11 -k MAC
h -t 1.049482838 -s 21 -d -1 -p DSR -e 126 -c 2 -a 0 -i 11 -k MAC
r -t 1.049833092 -s 1 -d -1 -p DSR -e 68 -c 2 -a 0 -i 11 -k MAC
r -t 1.049833466 -s 12 -d -1 -p DSR -e 68 -c 2 -a 0 -i 11 -k MAC
r -t 1.049833571 -s 10 -d -1 -p DSR -e 68 -c 2 -a 0 -i 11 -k MAC
r -t 1.049833685 -s 2 -d -1 -p DSR -e 68 -c 2 -a 0 -i 11 -k MAC
r -t 1.050491032 -s 13 -d -1 -p DSR -e 68 -c 2 -a 0 -i 11 -k MAC
r -t 1.050491230 -s 3 -d -1 -p DSR -e 68 -c 2 -a 0 -i 11 -k MAC
r -t 1.050491336 -s 6 -d -1 -p DSR -e 68 -c 2 -a 0 -i 11 -k MAC
r -t 1.050491525 -s 15 -d -1 -p DSR -e 68 -c 2 -a 0 -i 11 -k MAC
r -t 1.050491552 -s 8 -d -1 -p DSR -e 68 -c 2 -a 0 -i 11 -k MAC
d -t 1.050491622 -s 22 -d -1 -p DSR -e 126 -c 2 -a 0 -i 11 -k MAC
+ -t 1.050966052 -s 11 -d -1 -p DSR -e 106 -c 2 -a 0 -i 11 -k MAC 
- -t 1.050966052 -s 11 -d -1 -p DSR -e 106 -c 2 -a 0 -i 11 -k MAC
h -t 1.050966052 -s 11 -d -1 -p DSR -e 106 -c 2 -a 0 -i 11 -k MAC
+ -t 1.051256514 -s 6 -d -1 -p DSR -e 68 -c 2 -a 0 -i 11 -k RTR 
- -t 1.051256514 -s 6 -d -1 -p DSR -e 68 -c 2 -a 0 -i 11 -k RTR
h -t 1.051256514 -s 6 -d -1 -p DSR -e 68 -c 2 -a 0 -i 11 -k RTR
r -t 1.051814630 -s 4 -d -1 -p DSR -e 48 -c 2 -a 0 -i 11 -k MAC
r -t 1.051814638 -s 23 -d -1 -p DSR -e 48 -c 2 -a 0 -i 11 -k MAC
r -t 1.051814677 -s 10 -d -1 -p DSR -e 48 -c 2 -a 0 -i 11 -k MAC
r -t 1.051814731 -s 22 -d -1 -p DSR -e 48 -c 2 -a 0 -i 11 -k MAC
r -t 1.051814745 -s 0 -d -1 -p DSR -e 48 -c 2 -a 0 -i 11 -k MAC
r -t 1.051814796 -s 14 -d -1 -p DSR -e 48 -c 2 -a 0 -i 11 -k MAC
+ -t 1.052569238 -s 6 -d -1 -p DSR -e 126 -c 2 -a 0 -i 11 -k MAC 
- -t 1.052569238 -s 6 -d -1 -p DSR -e 126 -c 2 -a 0 -i 11 -k MAC
h -t 1.052569238 -s 6 -d -1 -p DSR -e 126 -c 2 -a 0 -i 11 -k MAC
+ -t 1.052623918 -s 14 -d -1 -p DSR -e 68 -c 2 -a 0 -i 11 -k RTR 
- -t 1.052623918 -s 14 -d -1 -p DSR -e 68 -c 2 -a 0 -i 11 -k RTR
h -t 1.052623918 -s 14 -d -1 -p DSR -e 68 -c 2 -a 0 -i 11 -k RTR
+ -t 1.053229174 -s 8 -d -1 -p DSR -e 92 -c 2 -a 0 -i 11 -k RTR 
- -t 1.053229174 -s 8 -d -1 -p DSR -e 92 -c 2 -a 0 -i 11 -k RTR
h -t 1.053229174 -s 8 -d -1 -p DSR -e 92 -c 2 -a 0 -i 11 -k RTR
+ -t 1.053278918 -s 14 -d -1 -p DSR -e 126 -c 2 -a 0 -i 11 -k MAC 
- -t 1.053278918 -s 14 -d -1 -p DSR -e 126 -c 2 -a 0 -i 11 -k MAC
h -t 1.053278918 -s 14 -d -1 -p DSR -e 126 -c 2 -a 0 -i 11 -k MAC
r -t 1.053577736 -s 21 -d -1 -p DSR -e 68 -c 2 -a 0 -i 11 -k MAC
r -t 1.053577784 -s 22 -d -1 -p DSR -e 68 -c 2 -a 0 -i 11 -k MAC
r -t 1.053577834 -s 13 -d -1 -p DSR -e 68 -c 2 -a 0 -i 11 -k MAC
r -t 1.053577989 -s 3 -d -1 -p DSR -e 68 -c 2 -a 0 -i 11 -k MAC
+ -t 1.053695181 -s 3 -d -1 -p DSR -e 68 -c 2 -a 0 -i 11 -k RTR 
- -t 1.053695181 -s 3 -d -1 -p DSR -e 68 -c 2 -a 0 -i 11 -k RTR
h -t 1.053695181 -s 3 -d -1 -p DSR -e 68 -c 2 -a 0 -i 11 -k RTR
d -t 1.054287122 -s 23 -d -1 -p DSR -e 126 -c 2 -a 0 -i 11 -k MAC
r -t 1.054287504 -s 16 -d -1 -p DSR -e 68 -c 2 -a 0 -i 11 -k MAC
r -t 1.054287579 -s 19 -d -1 -p DSR -e 68 -c 2 -a 0 -i 11 -k MAC
d -t 1.054287582 -s 10 -d -1 -p DSR -e 126 -c 2 -a 0 -i 11 -k MAC
r -t 1.054287603 -s 24 -d -1 -p DSR -e 68 -c 2 -a 0 -i 11 -k MAC
d -t 1.054287661 -s 11 -d -1 -p DSR -e 126 -c 2 -a 0 -i 11 -k MAC
d -t 1.054287742 -s 4 -d -1 -p DSR -e 126 -c 2 -a 0 -i 11 -k MAC
+ -t 1.054378367 -s 23 -d -1 -p DSR -e 68 -c 2 -a 0 -i 11 -k RTR 
- -t 1.054378367 -s 23 -d -1 -p DSR -e 68 -c 2 -a 0 -i 11 -k RTR
h -t 1.054378367 -s 23 -d -1 -p DSR -e 68 -c 2 -a 0 -i 11 -k RTR
+ -t 1.054407101 -s 19 -d -1 -p DSR -e 92 -c 2 -a 0 -i 11 -k RTR 
- -t 1.054407101 -s 19 -d -1 -p DSR -e 92 -c 2 -a 0 -i 11 -k RTR
h -t 1.054407101 -s 19 -d -1 -p DSR -e 92 -c 2 -a 0 -i 11 -k RTR
+ -t 1.054572382 -s 8 -d -1 -p DSR -e 150 -c 2 -a 0 -i 11 -k MAC 
- -t 1.054572382 -s 8 -d -1 -p DSR -e 150 -c 2 -a 0 -i 11 -k MAC
h -t 1.054572382 -s 8 -d -1 -p DSR -e 150 -c 2 -a 0 -i 11 -k MAC
+ -t 1.054742101 -s 19 -d -1 -p DSR -e 150 -c 2 -a 0 -i 11 -k MAC 
- -t 1.054742101 -s 19 -d -1 -p DSR -e 150 -c 2 -a 0 -i 11 -k MAC
h -t 1.054742101 -s 19 -d -1 -p DSR -e 150 -c 2 -a 0 -i 11 -k MAC
+ -t 1.055744857 -s 15 -d -1 -p DSR -e 92 -c 2 -a 0 -i 11 -k RTR 
- -t 1.055744857 -s 15 -d -1 -p DSR -e 92 -c 2 -a 0 -i 11 -k RTR
h -t 1.055744857 -s 15 -d -1 -p DSR -e 92 -c 2 -a 0 -i 11 -k RTR
r -t 1.055772935 -s 13 -d -1 -p DSR -e 92 -c 2 -a 0 -i 11 -k MAC
r -t 1.055773054 -s 15 -d -1 -p DSR -e 92 -c 2 -a 0 -i 11 -k MAC
r -t 1.055773095 -s 21 -d -1 -p DSR -e 92 -c 2 -a 0 -i 11 -k MAC
r -t 1.055942619 -s 16 -d -1 -p DSR -e 92 -c 2 -a 0 -i 11 -k MAC
r -t 1.055942639 -s 7 -d -1 -p DSR -e 92 -c 2 -a 0 -i 11 -k MAC
r -t 1.055942650 -s 10 -d -1 -p DSR -e 92 -c 2 -a 0 -i 11 -k MAC
r -t 1.055942762 -s 14 -d -1 -p DSR -e 92 -c 2 -a 0 -i 11 -k MAC
r -t 1.055942789 -s 17 -d -1 -p DSR -e 92 -c 2 -a 0 -i 11 -k MAC
r -t 1.055942920 -s 23 -d -1 -p DSR -e 92 -c 2 -a 0 -i 11 -k MAC
r -t 1.055942928 -s 2 -d -1 -p DSR -e 92 -c 2 -a 0 -i 11 -k MAC
+ -t 1.056000000 -s 0 -d -1 -p cbr -e 1000 -c 2 -a 0 -i 22 -k AGT 
- -t 1.056000000 -s 0 -d -1 -p cbr -e 1000 -c 2 -a 0 -i 22 -k AGT
h -t 1.056000000 -s 0 -d -1 -p cbr -e 1000 -c 2 -a 0 -i 22 -k AGT
+ -t 1.056092920 -s 23 -d -1 -p DSR -e 126 -c 2 -a 0 -i 11 -k MAC 
- -t 1.056092920 -s 23 -d -1 -p DSR -e 126 -c 2 -a 0 -i 11 -k MAC
h -t 1.056092920 -s 23 -d -1 -p DSR -e 126 -c 2 -a 0 -i 11 -k MAC
+ -t 1.056316351 -s 13 -d -1 -p DSR -e 92 -c 2 -a 0 -i 11 -k RTR 
- -t 1.056316351 -s 13 -d -1 -p DSR -e 92 -c 2 -a 0 -i 11 -k RTR
h -t 1.056316351 -s 13 -d -1 -p DSR -e 92 -c 2 -a 0 -i 11 -k RTR
+ -t 1.056316945 -s 4 -d -1 -p DSR -e 68 -c 2 -a 0 -i 11 -k RTR 
- -t 1.056316945 -s 4 -d -1 -p DSR -e 68 -c 2 -a 0 -i 11 -k RTR
h -t 1.056316945 -s 4 -d -1 -p DSR -e 68 -c 2 -a 0 -i 11 -k RTR
r -t 1.057101125 -s 14 -d -1 -p DSR -e 68 -c 2 -a 0 -i 11 -k MAC
r -t 1.057101506 -s 11 -d -1 -p DSR -e 68 -c 2 -a 0 -i 11 -k MAC
r -t 1.057101543 -s 4 -d -1 -p DSR -e 68 -c 2 -a 0 -i 11 -k MAC
r -t 1.057101603 -s 10 -d -1 -p DSR -e 68 -c 2 -a 0 -i 11 -k MAC
r -t 1.057101632 -s 24 -d -1 -p DSR -e 68 -c 2 -a 0 -i 11 -k MAC
r -t 1.057101710 -s 16 -d -1 -p DSR -e 68 -c 2 -a 0 -i 11 -k MAC
r -t 1.057101734 -s 20 -d -1 -p DSR -e 68 -c 2 -a 0 -i 11 -k MAC
r -t 1.057101739 -s 19 -d -1 -p DSR -e 68 -c 2 -a 0 -i 11 -k MAC
+ -t 1.057457615 -s 16 -d -1 -p DSR -e 92 -c 2 -a 0 -i 11 -k RTR 
- -t 1.057457615 -s 16 -d -1 -p DSR -e 92 -c 2 -a 0 -i 11 -k RTR
h -t 1.057457615 -s 16 -d -1 -p DSR -e 92 -c 2 -a 0 -i 11 -k RTR
+ -t 1.057491543 -s 4 -d -1 -p DSR -e 126 -c 2 -a 0 -i 11 -k MAC 
- -t 1.057491543 -s 4 -d -1 -p DSR -e 126 -c 2 -a 0 -i 11 -k MAC
h -t 1.057491543 -s 4 -d -1 -p DSR -e 126 -c 2 -a 0 -i 11 -k MAC
+ -t 1.057684977 -s 2 -d -1 -p DSR -e 92 -c 2 -a 0 -i 11 -k RTR 
- -t 1.057684977 -s 2 -d -1 -p DSR -e 92 -c 2 -a 0 -i 11 -k RTR
h -t 1.057684977 -s 2 -d -1 -p DSR -e 92 -c 2 -a 0 -i 11 -k RTR
+ -t 1.057899977 -s 2 -d -1 -p DSR -e 150 -c 2 -a 0 -i 11 -k MAC 
- -t 1.057899977 -s 2 -d -1 -p DSR -e 150 -c 2 -a 0 -i 11 -k MAC
h -t 1.057899977 -s 2 -d -1 -p DSR -e 150 -c 2 -a 0 -i 11 -k MAC
+ -t 1.058218085 -s 10 -d -1 -p DSR -e 92 -c 2 -a 0 -i 11 -k RTR 
- -t 1.058218085 -s 10 -d -1 -p DSR -e 92 -c 2 -a 0 -i 11 -k RTR
h -t 1.058218085 -s 10 -d -1 -p DSR -e 92 -c 2 -a 0 -i 11 -k RTR
r -t 1.058500029 -s 5 -d -1 -p DSR -e 68 -c 2 -a 0 -i 11 -k MAC
r -t 1.058500068 -s 3 -d -1 -p DSR -e 68 -c 2 -a 0 -i 11 -k MAC
r -t 1.058500121 -s 11 -d -1 -p DSR -e 68 -c 2 -a 0 -i 11 -k MAC
r -t 1.058500166 -s 23 -d -1 -p DSR -e 68 -c 2 -a 0 -i 11 -k MAC
r -t 1.058500223 -s 20 -d -1 -p DSR -e 68 -c 2 -a 0 -i 11 -k MAC
r -t 1.058500315 -s 9 -d -1 -p DSR -e 68 -c 2 -a 0 -i 11 -k MAC
r -t 1.058500351 -s 15 -d -1 -p DSR -e 68 -c 2 -a 0 -i 11 -k MAC
r -t 1.058500367 -s 22 -d -1 -p DSR -e 68 -c 2 -a 0 -i 11 -k MAC
r -t 1.058500367 -s 14 -d -1 -p DSR -e 68 -c 2 -a 0 -i 11 -k MAC
+ -t 1.058570068 -s 3 -d -1 -p DSR -e 126 -c 2 -a 0 -i 11 -k MAC 
- -t 1.058570068 -s 3 -d -1 -p DSR -e 126 -c 2 -a 0 -i 11 -k MAC
h -t 1.058570068 -s 3 -d -1 -p DSR -e 126 -c 2 -a 0 -i 11 -k MAC
r -t 1.059100331 -s 7 -d -1 -p DSR -e 92 -c 2 -a 0 -i 11 -k MAC
r -t 1.059100541 -s 17 -d -1 -p DSR -e 92 -c 2 -a 0 -i 11 -k MAC
r -t 1.059100720 -s 1 -d -1 -p DSR -e 92 -c 2 -a 0 -i 11 -k MAC
d -t 1.059100763 -s 18 -d -1 -p DSR -e 150 -c 2 -a 0 -i 11 -k MAC
d -t 1.059100804 -s 19 -d -1 -p DSR -e 150 -c 2 -a 0 -i 11 -k MAC
+ -t 1.059103889 -s 9 -d -1 -p DSR -e 92 -c 2 -a 0 -i 11 -k RTR 
- -t 1.059103889 -s 9 -d -1 -p DSR -e 92 -c 2 -a 0 -i 11 -k RTR
h -t 1.059103889 -s 9 -d -1 -p DSR -e 92 -c 2 -a 0 -i 11 -k RTR
r -t 1.059578459 -s 21 -d -1 -p DSR -e 68 -c 2 -a 0 -i 11 -k MAC
r -t 1.059578573 -s 15 -d -1 -p DSR -e 68 -c 2 -a 0 -i 11 -k MAC
r -t 1.059578593 -s 4 -d -1 -p DSR -e 68 -c 2 -a 0 -i 11 -k MAC
r -t 1.059578612 -s 13 -d -1 -p DSR -e 68 -c 2 -a 0 -i 11 -k MAC
r -t 1.059578692 -s 5 -d -1 -p DSR -e 68 -c 2 -a 0 -i 11 -k MAC
r -t 1.059578728 -s 9 -d -1 -p DSR -e 68 -c 2 -a 0 -i 11 -k MAC
r -t 1.059578819 -s 6 -d -1 -p DSR -e 68 -c 2 -a 0 -i 11 -k MAC
r -t 1.059578821 -s 22 -d -1 -p DSR -e 68 -c 2 -a 0 -i 11 -k MAC
+ -t 1.059708612 -s 13 -d -1 -p DSR -e 150 -c 2 -a 0 -i 11 -k MAC 
- -t 1.059708612 -s 13 -d -1 -p DSR -e 150 -c 2 -a 0 -i 11 -k MAC
h -t 1.059708612 -s 13 -d -1 -p DSR -e 150 -c 2 -a 0 -i 11 -k MAC
+ -t 1.059875243 -s 16 -d -1 -p DSR -e 150 -c 2 -a 0 -i 11 -k MAC 
- -t 1.059875243 -s 16 -d -1 -p DSR -e 150 -c 2 -a 0 -i 11 -k MAC
h -t 1.059875243 -s 16 -d -1 -p DSR -e 150 -c 2 -a 0 -i 11 -k MAC
+ -t 1.060839150 -s 5 -d -1 -p DSR -e 92 -c 2 -a 0 -i 11 -k RTR 
- -t 1.060839150 -s 5 -d -1 -p DSR -e 92 -c 2 -a 0 -i 11 -k RTR
h -t 1.060839150 -s 5 -d -1 -p DSR -e 92 -c 2 -a 0 -i 11 -k RTR
+ -t 1.060892493 -s 20 -d 23 -p DSR -e 60 -c 2 -a 0 -i 24 -k RTR 
- -t 1.060892493 -s 20 -d 23 -p DSR -e 60 -c 2 -a 0 -i 24 -k RTR
h -t 1.060892493 -s 20 -d 23 -p DSR -e 60 -c 2 -a 0 -i 24 -k RTR
r -t 1.060908805 -s 21 -d -1 -p DSR -e 92 -c 2 -a 0 -i 11 -k MAC
r -t 1.060909155 -s 3 -d -1 -p DSR -e 92 -c 2 -a 0 -i 11 -k MAC
r -t 1.060909164 -s 8 -d -1 -p DSR -e 92 -c 2 -a 0 -i 11 -k MAC
r -t 1.060909208 -s 6 -d -1 -p DSR -e 92 -c 2 -a 0 -i 11 -k MAC
r -t 1.060909315 -s 15 -d -1 -p DSR -e 92 -c 2 -a 0 -i 11 -k MAC
r -t 1.061075760 -s 19 -d -1 -p DSR -e 92 -c 2 -a 0 -i 11 -k MAC
r -t 1.061075828 -s 14 -d -1 -p DSR -e 92 -c 2 -a 0 -i 11 -k MAC
d -t 1.061076032 -s 23 -d -1 -p DSR -e 150 -c 2 -a 0 -i 11 -k MAC
+ -t 1.061159315 -s 15 -d -1 -p DSR -e 150 -c 2 -a 0 -i 11 -k MAC 
- -t 1.061159315 -s 15 -d -1 -p DSR -e 150 -c 2 -a 0 -i 11 -k MAC
h -t 1.061159315 -s 15 -d -1 -p DSR -e 150 -c 2 -a 0 -i 11 -k MAC
+ -t 1.061271898 -s 20 -d 4 -p DSR -e 60 -c 2 -a 0 -i 25 -k RTR 
- -t 1.061271898 -s 20 -d 4 -p DSR -e 60 -c 2 -a 0 -i 25 -k RTR
h -t 1.061271898 -s 20 -d 4 -p DSR -e 60 -c 2 -a 0 -i 25 -k RTR
+ -t 1.061590184 -s 10 -d -1 -p DSR -e 150 -c 2 -a 0 -i 11 -k MAC 
- -t 1.061590184 -s 10 -d -1 -p DSR -e 150 -c 2 -a 0 -i 11 -k MAC
h -t 1.061590184 -s 10 -d -1 -p DSR -e 150 -c 2 -a 0 -i 11 -k MAC
d -t 1.061591288 -s 4 -d -1 -p DSR -e 150 -c 2 -a 0 -i 11 -k MAC
r -t 1.062359591 -s 9 -d -1 -p DSR -e 92 -c 2 -a 0 -i 11 -k MAC
r -t 1.062359819 -s 3 -d -1 -p DSR -e 92 -c 2 -a 0 -i 11 -k MAC
r -t 1.062359840 -s 5 -d -1 -p DSR -e 92 -c 2 -a 0 -i 11 -k MAC
r -t 1.062359988 -s 8 -d -1 -p DSR -e 92 -c 2 -a 0 -i 11 -k MAC
r -t 1.062360000 -s 21 -d -1 -p DSR -e 92 -c 2 -a 0 -i 11 -k MAC
r -t 1.062360018 -s 13 -d -1 -p DSR -e 92 -c 2 -a 0 -i 11 -k MAC
+ -t 1.062689591 -s 9 -d -1 -p DSR -e 150 -c 2 -a 0 -i 11 -k MAC 
- -t 1.062689591 -s 9 -d -1 -p DSR -e 150 -c 2 -a 0 -i 11 -k MAC
h -t 1.062689591 -s 9 -d -1 -p DSR -e 150 -c 2 -a 0 -i 11 -k MAC
r -t 1.062790732 -s 19 -d -1 -p DSR -e 92 -c 2 -a 0 -i 11 -k MAC
d -t 1.062790809 -s 11 -d -1 -p DSR -e 150 -c 2 -a 0 -i 11 -k MAC
d -t 1.062790848 -s 14 -d -1 -p DSR -e 150 -c 2 -a 0 -i 11 -k MAC
r -t 1.062790856 -s 18 -d -1 -p DSR -e 92 -c 2 -a 0 -i 11 -k MAC
d -t 1.062790865 -s 23 -d -1 -p DSR -e 150 -c 2 -a 0 -i 11 -k MAC
+ -t 1.063521807 -s 24 -d -1 -p DSR -e 92 -c 2 -a 0 -i 11 -k RTR 
- -t 1.063521807 -s 24 -d -1 -p DSR -e 92 -c 2 -a 0 -i 11 -k RTR
h -t 1.063521807 -s 24 -d -1 -p DSR -e 92 -c 2 -a 0 -i 11 -k RTR
r -t 1.063889867 -s 15 -d -1 -p DSR -e 92 -c 2 -a 0 -i 11 -k MAC
r -t 1.063889940 -s 5 -d -1 -p DSR -e 92 -c 2 -a 0 -i 11 -k MAC
d -t 1.063890201 -s 20 -d -1 -p DSR -e 150 -c 2 -a 0 -i 11 -k MAC
r -t 1.063890251 -s 3 -d -1 -p DSR -e 92 -c 2 -a 0 -i 11 -k MAC
d -t 1.063890363 -s 4 -d -1 -p DSR -e 150 -c 2 -a 0 -i 11 -k MAC
+ -t 1.064000000 -s 0 -d -1 -p cbr -e 1000 -c 2 -a 0 -i 26 -k AGT 
- -t 1.064000000 -s 0 -d -1 -p cbr -e 1000 -c 2 -a 0 -i 26 -k AGT
h -t 1.064000000 -s 0 -d -1 -p cbr -e 1000 -c 2 -a 0 -i 26 -k AGT
+ -t 1.064402518 -s 17 -d -1 -p DSR -e 120 -c 2 -a 0 -i 11 -k RTR 
- -t 1.064402518 -s 17 -d -1 -p DSR -e 120 -c 2 -a 0 -i 11 -k RTR
h -t 1.064402518 -s 17 -d -1 -p DSR -e 120 -c 2 -a 0 -i 11 -k RTR
+ -t 1.064417813 -s 7 -d -1 -p DSR -e 120 -c 2 -a 0 -i 11 -k RTR 
- -t 1.064417813 -s 7 -d -1 -p DSR -e 120 -c 2 -a 0 -i 11 -k RTR
h -t 1.064417813 -s 7 -d -1 -p DSR -e 120 -c 2 -a 0 -i 11 -k RTR
+ -t 1.064499940 -s 5 -d -1 -p DSR -e 150 -c 2 -a 0 -i 11 -k MAC 
- -t 1.064499940 -s 5 -d -1 -p DSR -e 150 -c 2 -a 0 -i 11 -k MAC
h -t 1.064499940 -s 5 -d -1 -p DSR -e 150 -c 2 -a 0 -i 11 -k MAC
+ -t 1.064612813 -s 7 -d -1 -p DSR -e 178 -c 2 -a 0 -i 11 -k MAC 
- -t 1.064612813 -s 7 -d -1 -p DSR -e 178 -c 2 -a 0 -i 11 -k MAC
h -t 1.064612813 -s 7 -d -1 -p DSR -e 178 -c 2 -a 0 -i 11 -k MAC
r -t 1.065700288 -s 9 -d -1 -p DSR -e 92 -c 2 -a 0 -i 11 -k MAC
r -t 1.065700298 -s 20 -d -1 -p DSR -e 92 -c 2 -a 0 -i 11 -k MAC
r -t 1.065700426 -s 4 -d -1 -p DSR -e 92 -c 2 -a 0 -i 11 -k MAC
r -t 1.065700464 -s 15 -d -1 -p DSR -e 92 -c 2 -a 0 -i 11 -k MAC
r -t 1.065700564 -s 3 -d -1 -p DSR -e 92 -c 2 -a 0 -i 11 -k MAC
+ -t 1.065870298 -s 20 -d -1 -p ARP -e 86 -c 2 -a 0 -i 0 -k MAC 
- -t 1.065870298 -s 20 -d -1 -p ARP -e 86 -c 2 -a 0 -i 0 -k MAC
h -t 1.065870298 -s 20 -d -1 -p ARP -e 86 -c 2 -a 0 -i 0 -k MAC
r -t 1.066037113 -s 17 -d -1 -p DSR -e 120 -c 2 -a 0 -i 11 -k MAC
r -t 1.066037167 -s 2 -d -1 -p DSR -e 120 -c 2 -a 0 -i 11 -k MAC
d -t 1.066037351 -s 19 -d -1 -p DSR -e 178 -c 2 -a 0 -i 11 -k MAC
+ -t 1.066527113 -s 17 -d -1 -p DSR -e 178 -c 2 -a 0 -i 11 -k MAC 
- -t 1.066527113 -s 17 -d -1 -p DSR -e 178 -c 2 -a 0 -i 11 -k MAC
h -t 1.066527113 -s 17 -d -1 -p DSR -e 178 -c 2 -a 0 -i 11 -k MAC
r -t 1.066558657 -s 5 -d -1 -p ARP -e 28 -c 2 -a 0 -i 0 -k MAC
r -t 1.066558822 -s 24 -d -1 -p ARP -e 28 -c 2 -a 0 -i 0 -k MAC
r -t 1.066558908 -s 9 -d -1 -p ARP -e 28 -c 2 -a 0 -i 0 -k MAC
r -t 1.066558979 -s 4 -d -1 -p ARP -e 28 -c 2 -a 0 -i 0 -k MAC
d -t 1.066559114 -s 23 -d -1 -p ARP -e 86 -c 2 -a 0 -i 0 -k MAC
+ -t 1.066908298 -s 20 -d -1 -p ARP -e 86 -c 2 -a 0 -i 0 -k MAC 
- -t 1.066908298 -s 20 -d -1 -p ARP -e 86 -c 2 -a 0 -i 0 -k MAC
h -t 1.066908298 -s 20 -d -1 -p ARP -e 86 -c 2 -a 0 -i 0 -k MAC
r -t 1.067596657 -s 5 -d -1 -p ARP -e 28 -c 2 -a 0 -i 0 -k MAC
r -t 1.067596822 -s 24 -d -1 -p ARP -e 28 -c 2 -a 0 -i 0 -k MAC
r -t 1.067596908 -s 9 -d -1 -p ARP -e 28 -c 2 -a 0 -i 0 -k MAC
r -t 1.067596979 -s 4 -d -1 -p ARP -e 28 -c 2 -a 0 -i 0 -k MAC
r -t 1.067597114 -s 23 -d -1 -p ARP -e 28 -c 2 -a 0 -i 0 -k MAC
+ -t 1.067671979 -s 4 -d -1 -p RTS -e 44 -c 2 -a 0 -i 0 -k MAC 
- -t 1.067671979 -s 4 -d -1 -p RTS -e 44 -c 2 -a 0 -i 0 -k MAC
h -t 1.067671979 -s 4 -d -1 -p RTS -e 44 -c 2 -a 0 -i 0 -k MAC
r -t 1.067951413 -s 7 -d -1 -p DSR -e 120 -c 2 -a 0 -i 11 -k MAC
r -t 1.067951677 -s 2 -d -1 -p DSR -e 120 -c 2 -a 0 -i 11 -k MAC
r -t 1.067951798 -s 19 -d -1 -p DSR -e 120 -c 2 -a 0 -i 11 -k MAC
r -t 1.068024659 -s 20 -d -1 -p RTS -e 44 -c 2 -a 0 -i 0 -k MAC
+ -t 1.068034659 -s 20 -d -1 -p CTS -e 38 -c 2 -a 0 -i 0 -k MAC 
- -t 1.068034659 -s 20 -d -1 -p CTS -e 38 -c 2 -a 0 -i 0 -k MAC
h -t 1.068034659 -s 20 -d -1 -p CTS -e 38 -c 2 -a 0 -i 0 -k MAC
r -t 1.068339339 -s 4 -d -1 -p CTS -e 38 -c 2 -a 0 -i 0 -k MAC
+ -t 1.068349339 -s 4 -d -1 -p ARP -e 86 -c 2 -a 0 -i 0 -k MAC 
- -t 1.068349339 -s 4 -d -1 -p ARP -e 86 -c 2 -a 0 -i 0 -k MAC
h -t 1.068349339 -s 4 -d -1 -p ARP -e 86 -c 2 -a 0 -i 0 -k MAC
r -t 1.068591619 -s 20 -d -1 -p ARP -e 28 -c 2 -a 0 -i 0 -k MAC
+ -t 1.068601619 -s 20 -d -1 -p ACK -e 38 -c 2 -a 0 -i 0 -k MAC 
- -t 1.068601619 -s 20 -d -1 -p ACK -e 38 -c 2 -a 0 -i 0 -k MAC
h -t 1.068601619 -s 20 -d -1 -p ACK -e 38 -c 2 -a 0 -i 0 -k MAC
r -t 1.068906300 -s 4 -d -1 -p ACK -e 38 -c 2 -a 0 -i 0 -k MAC
+ -t 1.069135619 -s 20 -d -1 -p RTS -e 44 -c 2 -a 0 -i 0 -k MAC 
- -t 1.069135619 -s 20 -d -1 -p RTS -e 44 -c 2 -a 0 -i 0 -k MAC
h -t 1.069135619 -s 20 -d -1 -p RTS -e 44 -c 2 -a 0 -i 0 -k MAC
r -t 1.069488300 -s 4 -d -1 -p RTS -e 44 -c 2 -a 0 -i 0 -k MAC
+ -t 1.069498300 -s 4 -d -1 -p CTS -e 38 -c 2 -a 0 -i 0 -k MAC 
- -t 1.069498300 -s 4 -d -1 -p CTS -e 38 -c 2 -a 0 -i 0 -k MAC
h -t 1.069498300 -s 4 -d -1 -p CTS -e 38 -c 2 -a 0 -i 0 -k MAC
r -t 1.069802980 -s 20 -d -1 -p CTS -e 38 -c 2 -a 0 -i 0 -k MAC
+ -t 1.069812980 -s 20 -d 4 -p DSR -e 118 -c 2 -a 0 -i 25 -k MAC 
- -t 1.069812980 -s 20 -d 4 -p DSR -e 118 -c 2 -a 0 -i 25 -k MAC
h -t 1.069812980 -s 20 -d 4 -p DSR -e 118 -c 2 -a 0 -i 25 -k MAC
r -t 1.070080860 -s 4 -d 4 -p DSR -e 60 -c 2 -a 0 -i 25 -k MAC
+ -t 1.070090860 -s 4 -d -1 -p ACK -e 38 -c 2 -a 0 -i 0 -k MAC 
- -t 1.070090860 -s 4 -d -1 -p ACK -e 38 -c 2 -a 0 -i 0 -k MAC
h -t 1.070090860 -s 4 -d -1 -p ACK -e 38 -c 2 -a 0 -i 0 -k MAC
+ -t 1.070105860 -s 4 -d 22 -p DSR -e 60 -c 2 -a 0 -i 25 -k RTR 
- -t 1.070105860 -s 4 -d 22 -p DSR -e 60 -c 2 -a 0 -i 25 -k RTR
h -t 1.070105860 -s 4 -d 22 -p DSR -e 60 -c 2 -a 0 -i 25 -k RTR
r -t 1.070395540 -s 20 -d -1 -p ACK -e 38 -c 2 -a 0 -i 0 -k MAC
+ -t 1.070724860 -s 4 -d -1 -p ARP -e 86 -c 2 -a 0 -i 0 -k MAC 
- -t 1.070724860 -s 4 -d -1 -p ARP -e 86 -c 2 -a 0 -i 0 -k MAC
h -t 1.070724860 -s 4 -d -1 -p ARP -e 86 -c 2 -a 0 -i 0 -k MAC
+ -t 1.070975837 -s 20 -d 5 -p DSR -e 68 -c 2 -a 0 -i 28 -k RTR 
- -t 1.070975837 -s 20 -d 5 -p DSR -e 68 -c 2 -a 0 -i 28 -k RTR
h -t 1.070975837 -s 20 -d 5 -p DSR -e 68 -c 2 -a 0 -i 28 -k RTR
r -t 1.071413346 -s 5 -d -1 -p ARP -e 28 -c 2 -a 0 -i 0 -k MAC
r -t 1.071413385 -s 3 -d -1 -p ARP -e 28 -c 2 -a 0 -i 0 -k MAC
r -t 1.071413438 -s 11 -d -1 -p ARP -e 28 -c 2 -a 0 -i 0 -k MAC
r -t 1.071413483 -s 23 -d -1 -p ARP -e 28 -c 2 -a 0 -i 0 -k MAC
r -t 1.071413540 -s 20 -d -1 -p ARP -e 28 -c 2 -a 0 -i 0 -k MAC
r -t 1.071413632 -s 9 -d -1 -p ARP -e 28 -c 2 -a 0 -i 0 -k MAC
r -t 1.071413665 -s 15 -d -1 -p ARP -e 28 -c 2 -a 0 -i 0 -k MAC
r -t 1.071413684 -s 22 -d -1 -p ARP -e 28 -c 2 -a 0 -i 0 -k MAC
r -t 1.071413684 -s 14 -d -1 -p ARP -e 28 -c 2 -a 0 -i 0 -k MAC
+ -t 1.071748684 -s 22 -d -1 -p RTS -e 44 -c 2 -a 0 -i 0 -k MAC 
- -t 1.071748684 -s 22 -d -1 -p RTS -e 44 -c 2 -a 0 -i 0 -k MAC
h -t 1.071748684 -s 22 -d -1 -p RTS -e 44 -c 2 -a 0 -i 0 -k MAC
+ -t 1.072000000 -s 0 -d -1 -p cbr -e 1000 -c 2 -a 0 -i 29 -k AGT 
- -t 1.072000000 -s 0 -d -1 -p cbr -e 1000 -c 2 -a 0 -i 29 -k AGT
h -t 1.072000000 -s 0 -d -1 -p cbr -e 1000 -c 2 -a 0 -i 29 -k AGT
r -t 1.072101508 -s 4 -d -1 -p RTS -e 44 -c 2 -a 0 -i 0 -k MAC
+ -t 1.072111508 -s 4 -d -1 -p CTS -e 38 -c 2 -a 0 -i 0 -k MAC 
- -t 1.072111508 -s 4 -d -1 -p CTS -e 38 -c 2 -a 0 -i 0 -k MAC
h -t 1.072111508 -s 4 -d -1 -p CTS -e 38 -c 2 -a 0 -i 0 -k MAC
r -t 1.072416331 -s 22 -d -1 -p CTS -e 38 -c 2 -a 0 -i 0 -k MAC
+ -t 1.072426331 -s 22 -d -1 -p ARP -e 86 -c 2 -a 0 -i 0 -k MAC 
- -t 1.072426331 -s 22 -d -1 -p ARP -e 86 -c 2 -a 0 -i 0 -k MAC
h -t 1.072426331 -s 22 -d -1 -p ARP -e 86 -c 2 -a 0 -i 0 -k MAC
r -t 1.072668755 -s 4 -d -1 -p ARP -e 28 -c 2 -a 0 -i 0 -k MAC
+ -t 1.072678755 -s 4 -d -1 -p ACK -e 38 -c 2 -a 0 -i 0 -k MAC 
- -t 1.072678755 -s 4 -d -1 -p ACK -e 38 -c 2 -a 0 -i 0 -k MAC
h -t 1.072678755 -s 4 -d -1 -p ACK -e 38 -c 2 -a 0 -i 0 -k MAC
r -t 1.072983579 -s 22 -d -1 -p ACK -e 38 -c 2 -a 0 -i 0 -k MAC
+ -t 1.073132755 -s 4 -d -1 -p RTS -e 44 -c 2 -a 0 -i 0 -k MAC 
- -t 1.073132755 -s 4 -d -1 -p RTS -e 44 -c 2 -a 0 -i 0 -k MAC
h -t 1.073132755 -s 4 -d -1 -p RTS -e 44 -c 2 -a 0 -i 0 -k MAC
r -t 1.073485579 -s 22 -d -1 -p RTS -e 44 -c 2 -a 0 -i 0 -k MAC
+ -t 1.073495579 -s 22 -d -1 -p CTS -e 38 -c 2 -a 0 -i 0 -k MAC 
- -t 1.073495579 -s 22 -d -1 -p CTS -e 38 -c 2 -a 0 -i 0 -k MAC
h -t 1.073495579 -s 22 -d -1 -p CTS -e 38 -c 2 -a 0 -i 0 -k MAC
r -t 1.073800403 -s 4 -d -1 -p CTS -e 38 -c 2 -a 0 -i 0 -k MAC
+ -t 1.073810403 -s 4 -d 22 -p DSR -e 118 -c 2 -a 0 -i 25 -k MAC 
- -t 1.073810403 -s 4 -d 22 -p DSR -e 118 -c 2 -a 0 -i 25 -k MAC
h -t 1.073810403 -s 4 -d 22 -p DSR -e 118 -c 2 -a 0 -i 25 -k MAC
r -t 1.074078426 -s 22 -d 22 -p DSR -e 60 -c 2 -a 0 -i 25 -k MAC
+ -t 1.074088426 -s 22 -d -1 -p ACK -e 38 -c 2 -a 0 -i 0 -k MAC 
- -t 1.074088426 -s 22 -d -1 -p ACK -e 38 -c 2 -a 0 -i 0 -k MAC
h -t 1.074088426 -s 22 -d -1 -p ACK -e 38 -c 2 -a 0 -i 0 -k MAC
+ -t 1.074103426 -s 22 -d 0 -p DSR -e 60 -c 2 -a 0 -i 25 -k RTR 
- -t 1.074103426 -s 22 -d 0 -p DSR -e 60 -c 2 -a 0 -i 25 -k RTR
h -t 1.074103426 -s 22 -d 0 -p DSR -e 60 -c 2 -a 0 -i 25 -k RTR
r -t 1.074393250 -s 4 -d -1 -p ACK -e 38 -c 2 -a 0 -i 0 -k MAC
+ -t 1.074782426 -s 22 -d -1 -p ARP -e 86 -c 2 -a 0 -i 0 -k MAC 
- -t 1.074782426 -s 22 -d -1 -p ARP -e 86 -c 2 -a 0 -i 0 -k MAC
h -t 1.074782426 -s 22 -d -1 -p ARP -e 86 -c 2 -a 0 -i 0 -k MAC
r -t 1.075470972 -s 6 -d -1 -p ARP -e 28 -c 2 -a 0 -i 0 -k MAC
r -t 1.075471044 -s 0 -d -1 -p ARP -e 28 -c 2 -a 0 -i 0 -k MAC
r -t 1.075471105 -s 11 -d -1 -p ARP -e 28 -c 2 -a 0 -i 0 -k MAC
r -t 1.075471179 -s 3 -d -1 -p ARP -e 28 -c 2 -a 0 -i 0 -k MAC
r -t 1.075471210 -s 21 -d -1 -p ARP -e 28 -c 2 -a 0 -i 0 -k MAC
r -t 1.075471250 -s 4 -d -1 -p ARP -e 28 -c 2 -a 0 -i 0 -k MAC
+ -t 1.075606044 -s 0 -d -1 -p RTS -e 44 -c 2 -a 0 -i 0 -k MAC 
- -t 1.075606044 -s 0 -d -1 -p RTS -e 44 -c 2 -a 0 -i 0 -k MAC
h -t 1.075606044 -s 0 -d -1 -p RTS -e 44 -c 2 -a 0 -i 0 -k MAC
r -t 1.075958662 -s 22 -d -1 -p RTS -e 44 -c 2 -a 0 -i 0 -k MAC
+ -t 1.075966199 -s 24 -d -1 -p DSR -e 150 -c 2 -a 0 -i 11 -k MAC 
- -t 1.075966199 -s 24 -d -1 -p DSR -e 150 -c 2 -a 0 -i 11 -k MAC
h -t 1.075966199 -s 24 -d -1 -p DSR -e 150 -c 2 -a 0 -i 11 -k MAC
+ -t 1.077006044 -s 0 -d -1 -p RTS -e 44 -c 2 -a 0 -i 0 -k MAC 
- -t 1.077006044 -s 0 -d -1 -p RTS -e 44 -c 2 -a 0 -i 0 -k MAC
h -t 1.077006044 -s 0 -d -1 -p RTS -e 44 -c 2 -a 0 -i 0 -k MAC
d -t 1.077007301 -s 23 -d -1 -p DSR -e 150 -c 2 -a 0 -i 11 -k MAC
r -t 1.077166722 -s 20 -d -1 -p DSR -e 92 -c 2 -a 0 -i 11 -k MAC
r -t 1.077166884 -s 14 -d -1 -p DSR -e 92 -c 2 -a 0 -i 11 -k MAC
d -t 1.077358662 -s 22 -d -1 -p RTS -e 44 -c 2 -a 0 -i 0 -k MAC
+ -t 1.077913874 -s 20 -d -1 -p ARP -e 86 -c 2 -a 0 -i 0 -k MAC 
- -t 1.077913874 -s 20 -d -1 -p ARP -e 86 -c 2 -a 0 -i 0 -k MAC
h -t 1.077913874 -s 20 -d -1 -p ARP -e 86 -c 2 -a 0 -i 0 -k MAC